# For a description of the Tecplot format see the Tecplot User's guide.
#
Variables=x,y,z,s_u,s_v,s_p,x,y,ref_u,ref_v,u,v
Zone f=fepoint, n=289, e=512, et=quadrilateral, c=black
0.00000 0.00000 0.00000 0.0000000000000000 0.0000000000000000 5.3961244379625377 0.0000000000000000 0.0000000000000000 0.0000000000000000 0.0000000000000000 0.0000000000000000 0.0000000000000000 
0.062500000000000000 0.0000000000000000 0.0000000000000000 -7.2417701211653324e-07 -2.1072623632284351e-06 2.6775324489085919 3.7530782587459118e-06 0.0000000000000000 0.062500000000000000 0.0000000000000000 0.062499275822987886 -2.1072623632284351e-06 
0.062500000000000000 0.062500000000000000 0.0000000000000000 -1.0660509111569052e-08 -1.4347098576623953e-06 1.9859514585938489 1.6963537019828539e-06 1.5452093370910185e-06 0.062500000000000000 0.062500000000000000 0.062499989339490879 0.062498565290142340 
0.0000000000000000 0.062500000000000000 0.0000000000000000 3.7629186519673590e-25 0.0000000000000000 1.3156390584862749 -7.8247965655284540e-22 3.5852272961074786e-06 0.0000000000000000 0.062500000000000000 3.7629186519673590e-25 0.062500000000000000 
0.12500000000000000 0.0000000000000000 0.0000000000000000 -1.3556632191396955e-06 -3.9232701780390459e-06 2.2303456101606720 2.8214133306756113e-06 0.0000000000000000 0.12500000000000000 0.0000000000000000 0.12499864433678086 -3.9232701780390459e-06 
0.12500000000000000 0.062500000000000000 0.0000000000000000 -5.9318042917296205e-07 -3.3421039793211681e-06 0.40306812610117088 -1.2171404549568562e-06 -6.0905993642196922e-07 0.12500000000000000 0.062500000000000000 0.12499940681957082 0.062496657896020678 
0.18750000000000000 0.0000000000000000 0.0000000000000000 -1.8805877012497242e-06 -5.5494973472302411e-06 1.8619495759578018 2.1819071857264810e-06 0.0000000000000000 0.18750000000000000 0.0000000000000000 0.18749811941229874 -5.5494973472302411e-06 
0.18750000000000000 0.062500000000000000 0.0000000000000000 -1.1031265651684293e-06 -5.0680972292149141e-06 0.33829502729866756 -4.6821269173908924e-07 1.1078457729115390e-07 0.18750000000000000 0.062500000000000000 0.18749889687343482 0.062494931902770785 
0.25000000000000000 0.0000000000000000 0.0000000000000000 -2.3139852619305750e-06 -7.0513816747724519e-06 1.5533814140967390 1.9102910644972409e-06 0.0000000000000000 0.25000000000000000 0.0000000000000000 0.24999768601473807 -7.0513816747724519e-06 
0.25000000000000000 0.062500000000000000 0.0000000000000000 -1.5245458547553534e-06 -6.6549442773276772e-06 0.26941949414186311 -4.9568454679687539e-07 -4.1328571426131898e-08 0.25000000000000000 0.062500000000000000 0.24999847545414525 0.062493345055722675 
0.31250000000000000 0.0000000000000000 0.0000000000000000 -2.6668656265572561e-06 -8.4655470785898165e-06 1.2866598465262922 1.6602605700926626e-06 0.0000000000000000 0.31250000000000000 0.0000000000000000 0.31249733313437345 -8.4655470785898165e-06 
0.31250000000000000 0.062500000000000000 0.0000000000000000 -1.8702713590075753e-06 -8.1438774092166403e-06 0.21151475956976618 -4.2058383182925955e-07 2.1909725137362765e-09 0.31250000000000000 0.062500000000000000 0.31249812972864094 0.062491856122590783 
0.37500000000000000 0.0000000000000000 0.0000000000000000 -2.9490437947587932e-06 -9.8103021175369993e-06 1.0526683561649945 1.4770829062663402e-06 0.0000000000000000 0.37500000000000000 0.0000000000000000 0.37499705095620522 -9.8103021175369993e-06 
0.37500000000000000 0.062500000000000000 0.0000000000000000 -2.1492211686867021e-06 -9.5543394791401762e-06 0.16141066270606022 -3.8413055952560406e-07 -1.2809560931467727e-08 0.37500000000000000 0.062500000000000000 0.37499785077883135 0.062490445660520859 
0.43750000000000000 0.0000000000000000 0.0000000000000000 -3.1692414080887919e-06 -1.1094911517708282e-05 0.84626755484563931 1.3177005788599270e-06 0.0000000000000000 0.43750000000000000 0.0000000000000000 0.43749683075859186 -1.1094911517708282e-05 
0.43750000000000000 0.062500000000000000 0.0000000000000000 -2.3694101135911315e-06 -1.0896457981323520e-05 0.11889552727208701 -3.5026188465579813e-07 -1.9396424173705153e-08 0.43750000000000000 0.062500000000000000 0.43749763058988639 0.062489103542018677 
0.50000000000000000 0.0000000000000000 0.0000000000000000 -3.3357165816760056e-06 -1.2323750446988924e-05 0.66461566789980253 1.1740267632248916e-06 0.0000000000000000 0.50000000000000000 0.0000000000000000 0.49999666428341832 -1.2323750446988924e-05 
0.50000000000000000 0.062500000000000000 0.0000000000000000 -2.5382651399254616e-06 -1.2175013118055564e-05 0.083319108444664350 -3.2047233982934004e-07 -2.9312453265872039e-08 0.50000000000000000 0.062500000000000000 0.49999746173486009 0.062487824986881942 
0.56250000000000000 0.0000000000000000 0.0000000000000000 -3.4564699489364052e-06 -1.3498806806873037e-05 0.50618420953036924 1.0375134563749338e-06 0.0000000000000000 0.56250000000000000 0.0000000000000000 0.56249654353005107 -1.3498806806873037e-05 
0.56250000000000000 0.062500000000000000 0.0000000000000000 -2.6629178152704871e-06 -1.3392199728572726e-05 0.054308041068244939 -2.9089377865349007e-07 -3.7715641490289000e-08 0.56250000000000000 0.062500000000000000 0.56249733708218475 0.062486607800271425 
0.62500000000000000 0.0000000000000000 0.0000000000000000 -3.5393776133059715e-06 -1.4621041507969319e-05 0.37020173682409219 9.0397631708955521e-07 0.0000000000000000 0.62500000000000000 0.0000000000000000 0.62499646062238667 -1.4621041507969319e-05 
0.62500000000000000 0.062500000000000000 0.0000000000000000 -2.7503685280595529e-06 -1.4549079051574315e-05 0.031517778995240886 -2.6042767496183142e-07 -4.4764591785768572e-08 0.62500000000000000 0.062500000000000000 0.62499724963147196 0.062485450920948427 
0.68750000000000000 0.0000000000000000 0.0000000000000000 -3.5922035713314432e-06 -1.5691148522088846e-05 0.25632595443833939 7.7052394265710995e-07 0.0000000000000000 0.68750000000000000 0.0000000000000000 0.68749640779642862 -1.5691148522088846e-05 
0.68750000000000000 0.062500000000000000 0.0000000000000000 -2.8075563170117770e-06 -1.5646446872102794e-05 0.014645076774552715 -2.2815643622098212e-07 -4.9017774929698972e-08 0.68750000000000000 0.062500000000000000 0.68749719244368290 0.062484353553127890 
0.75000000000000000 0.0000000000000000 0.0000000000000000 -3.6224992688129944e-06 -1.6709912027786381e-05 0.16443483532236977 6.3536215367073471e-07 0.0000000000000000 0.75000000000000000 0.0000000000000000 0.74999637750073112 -1.6709912027786381e-05 
0.75000000000000000 0.062500000000000000 0.0000000000000000 -2.8413390584838504e-06 -1.6685291253583002e-05 0.0033947993109202934 -1.9386128138966864e-07 -5.3482318685310638e-08 0.75000000000000000 0.062500000000000000 0.74999715866094163 0.062483314708746414 
0.81250000000000000 0.0000000000000000 0.0000000000000000 -3.6373589929116082e-06 -1.7678226627386988e-05 0.094502384073879842 4.9683295529377491e-07 0.0000000000000000 0.81250000000000000 0.0000000000000000 0.81249636264100700 -1.7678226627386988e-05 
0.81250000000000000 0.062500000000000000 0.0000000000000000 -2.8583689266241762e-06 -1.7666988629654033e-05 -0.0025260170224789455 -1.5704027125699555e-07 -4.8740297319381843e-08 0.81250000000000000 0.062500000000000000 0.81249714163107345 0.062482333011370343 
0.87500000000000000 0.0000000000000000 0.0000000000000000 -3.6430214953823412e-06 -1.8596895085072589e-05 0.046655575820129636 3.5283120181633984e-07 0.0000000000000000 0.87500000000000000 0.0000000000000000 0.87499635697850453 -1.8596895085072589e-05 
0.87500000000000000 0.062500000000000000 0.0000000000000000 -2.8648141623193373e-06 -1.8593145614432905e-05 -0.0033811779865787158 -1.2030032684398181e-07 -6.6468846809837118e-08 0.87500000000000000 0.062500000000000000 0.87499713518583777 0.062481406854385572 
0.93750000000000000 0.0000000000000000 0.0000000000000000 -3.6442497078631030e-06 -1.9465445965701089e-05 0.018002883440365432 2.0351643493892164e-07 0.0000000000000000 0.93750000000000000 0.0000000000000000 0.93749635575029211 -1.9465445965701089e-05 
0.93750000000000000 0.062500000000000000 0.0000000000000000 -2.8659679656579319e-06 -1.9464988690466322e-05 -0.0014744549716098690 -7.8130503538696103e-08 -1.8422097436251345e-08 0.93750000000000000 0.062500000000000000 0.93749713403203427 0.062480535011309533 
1.0000000000000000 0.0000000000000000 0.0000000000000000 -3.6440496106585134e-06 -2.0289888559488407e-05 0.027317225479892550 0.0000000000000000 0.0000000000000000 1.0000000000000000 0.0000000000000000 0.99999635595038938 -2.0289888559488407e-05 
1.0000000000000000 0.062500000000000000 0.0000000000000000 -2.8655227475975487e-06 -2.0289710903542060e-05 0.010229721704705820 0.0000000000000000 -1.2709763448489011e-07 1.0000000000000000 0.062500000000000000 0.99999713447725236 0.062479710289096456 
0.062500000000000000 0.12500000000000000 0.0000000000000000 -8.7850717228239449e-09 -1.3978132091865376e-06 0.51017759408290042 -5.0793023681148248e-07 -1.3306248803466722e-06 0.062500000000000000 0.12500000000000000 0.062499991214928274 0.12499860218679082 
0.0000000000000000 0.12500000000000000 0.0000000000000000 1.1157725549872371e-25 0.0000000000000000 0.93378073488141655 -3.5723725267600823e-22 2.9574607104199929e-06 0.0000000000000000 0.12500000000000000 1.1157725549872371e-25 0.12500000000000000 
0.12500000000000000 0.12500000000000000 0.0000000000000000 -4.3289899860393314e-08 -2.8230958233547746e-06 1.5943307398489956 1.5758873550633617e-06 1.5118711510217634e-06 0.12500000000000000 0.12500000000000000 0.12499995671010013 0.12499717690417665 
0.18750000000000000 0.12500000000000000 0.0000000000000000 -4.9035306794741186e-07 -4.6251855929379802e-06 0.40701765032177306 7.3192733814823775e-08 -4.7985890494809240e-07 0.18750000000000000 0.12500000000000000 0.18749950964693204 0.12499537481440705 
0.25000000000000000 0.12500000000000000 0.0000000000000000 -8.7323132981581099e-07 -6.2892468676609073e-06 0.36039259872036494 2.7919113334581045e-07 4.5582144717129905e-09 0.25000000000000000 0.12500000000000000 0.24999912676867017 0.12499371075313236 
0.31250000000000000 0.12500000000000000 0.0000000000000000 -1.1886692948766162e-06 -7.8452161967963649e-06 0.29513289981339752 1.9326029880476843e-07 -7.9559824789149246e-08 0.31250000000000000 0.12500000000000000 0.31249881133070506 0.12499215478380320 
0.37500000000000000 0.12500000000000000 0.0000000000000000 -1.4445811016149915e-06 -9.3151864637349450e-06 0.24162915537883958 1.8839794457357982e-07 -5.3937823415095169e-08 0.37500000000000000 0.12500000000000000 0.37499855541889837 0.12499068481353627 
0.43750000000000000 0.12500000000000000 0.0000000000000000 -1.6475242719591117e-06 -1.0709766853094407e-05 0.19502738612609880 1.6724831692508785e-07 -5.6864516250235097e-08 0.43750000000000000 0.12500000000000000 0.43749835247572805 0.12498929023314691 
0.50000000000000000 0.12500000000000000 0.0000000000000000 -1.8037075902078672e-06 -1.2034111800349850e-05 0.15480745771947280 1.5342662455710236e-07 -5.5533849003788991e-08 0.50000000000000000 0.12500000000000000 0.49999819629240977 0.12498796588819965 
0.56250000000000000 0.12500000000000000 0.0000000000000000 -1.9191713705215418e-06 -1.3290559683721716e-05 0.12024163409854711 1.3962487640347325e-07 -5.5725090665429977e-08 0.56250000000000000 0.12500000000000000 0.56249808082862962 0.12498670944031630 
0.62500000000000000 0.12500000000000000 0.0000000000000000 -1.9999238595150612e-06 -1.4480212929608555e-05 0.090934365711893020 1.2710344522359494e-07 -5.5375656475482377e-08 0.62500000000000000 0.12500000000000000 0.62499800007614048 0.12498551978707040 
0.68750000000000000 0.12500000000000000 0.0000000000000000 -2.0520105633066042e-06 -1.5603868544263589e-05 0.066594899768262647 1.1525642143412248e-07 -5.3725784165090895e-08 0.68750000000000000 0.12500000000000000 0.68749794798943664 0.12498439613145573 
0.75000000000000000 0.12500000000000000 0.0000000000000000 -2.0815292459319836e-06 -1.6662558159768968e-05 0.047021162155040451 1.0408823268830647e-07 -5.3566701083718433e-08 0.75000000000000000 0.12500000000000000 0.74999791847075403 0.12498333744184022 
0.81250000000000000 0.12500000000000000 0.0000000000000000 -2.0945685741225720e-06 -1.7657848675856310e-05 0.032117366524805881 9.3448272220876293e-08 -4.4329449675831158e-08 0.81250000000000000 0.12500000000000000 0.81249790543142597 0.12498234215132413 
0.87500000000000000 0.12500000000000000 0.0000000000000000 -2.0970392270667726e-06 -1.8591816955637995e-05 0.021962613360327676 8.1965999397083531e-08 -6.4033395268198125e-08 0.87500000000000000 0.12500000000000000 0.87499790296077296 0.12498140818304436 
0.93750000000000000 0.12500000000000000 0.0000000000000000 -2.0943862118675314e-06 -1.9466705485332584e-05 0.013774774234975811 8.0407076769550434e-08 1.0504004501556546e-08 0.93750000000000000 0.12500000000000000 0.93749790561378810 0.12498053329451465 
1.0000000000000000 0.12500000000000000 0.0000000000000000 -2.0907261799805138e-06 -2.0291031120396203e-05 0.036006364887361260 0.0000000000000000 -1.7050468661664017e-07 1.0000000000000000 0.12500000000000000 0.99999790927381993 0.12497970896887961 
0.062500000000000000 0.18750000000000000 0.0000000000000000 -1.7802306642055513e-09 -1.3823750729306233e-06 0.43953242103197049 1.8436204892578185e-07 -5.4212520351381401e-07 0.062500000000000000 0.18750000000000000 0.062499998219769336 0.18749861762492706 
0.0000000000000000 0.18750000000000000 0.0000000000000000 -2.2527241438573390e-24 0.0000000000000000 0.48584685078274942 7.7942673310174421e-22 2.2306339847391624e-06 0.0000000000000000 0.18750000000000000 -2.2527241438573390e-24 0.18750000000000000 
0.12500000000000000 0.18750000000000000 0.0000000000000000 -1.7634915611390626e-08 -2.7856021016575444e-06 0.42486774658519960 -3.8917298232232918e-07 7.7095487659954309e-08 0.12500000000000000 0.18750000000000000 0.12499998236508437 0.18749721439789835 
0.18750000000000000 0.18750000000000000 0.0000000000000000 -4.1848483859729598e-08 -4.2374202797093916e-06 1.2283885214521766 9.6832059062067001e-07 9.2836424275595231e-07 0.18750000000000000 0.18750000000000000 0.18749995815151613 0.18749576257972025 
0.25000000000000000 0.18750000000000000 0.0000000000000000 -3.6528357184495929e-07 -5.9649093250784243e-06 0.33805283075876230 -1.7315566262613087e-07 -3.0678770491632325e-07 0.25000000000000000 0.18750000000000000 0.24999963471642817 0.18749403509067489 
0.31250000000000000 0.18750000000000000 0.0000000000000000 -6.3621613364933992e-07 -7.5797216264218994e-06 0.30475900755299740 6.0770836985882660e-08 2.8273582454117744e-08 0.31250000000000000 0.18750000000000000 0.31249936378386639 0.18749242027837357 
0.37500000000000000 0.18750000000000000 0.0000000000000000 -8.5584573881353801e-07 -9.1020802621201942e-06 0.24850596390589050 2.4392963163429243e-09 -4.8546448698264971e-08 0.37500000000000000 0.18750000000000000 0.37499914415426122 0.18749089791973786 
0.43750000000000000 0.18750000000000000 0.0000000000000000 -1.0293728375471389e-06 -1.0543524729835418e-05 0.20390070394416523 1.3828218495546076e-08 -3.2049284867597659e-08 0.43750000000000000 0.18750000000000000 0.43749897062716242 0.18748945647527016 
0.50000000000000000 0.18750000000000000 0.0000000000000000 -1.1615896505267907e-06 -1.1909232907726273e-05 0.16556969883873260 8.7365788404961361e-09 -3.9949567443934303e-08 0.50000000000000000 0.18750000000000000 0.49999883841034948 0.18748809076709227 
0.56250000000000000 0.18750000000000000 0.0000000000000000 -1.2574000078275103e-06 -1.3201555772869874e-05 0.13285202300343482 8.2147492345101527e-09 -4.2391389971186517e-08 0.56250000000000000 0.18750000000000000 0.56249874259999222 0.18748679844422714 
0.62500000000000000 0.18750000000000000 0.0000000000000000 -1.3218438632658688e-06 -1.4421513626867700e-05 0.10489669497801475 7.3683328977332997e-09 -4.5711831956640991e-08 0.62500000000000000 0.18750000000000000 0.62499867815613674 0.18748557848637312 
0.68750000000000000 0.18750000000000000 0.0000000000000000 -1.3601348778730198e-06 -1.5569784783650404e-05 0.081256831869921123 7.4917606489783401e-09 -4.7060139725607949e-08 0.68750000000000000 0.18750000000000000 0.68749863986512227 0.18748443021521635 
0.75000000000000000 0.18750000000000000 0.0000000000000000 -1.3776798634054879e-06 -1.6647286813550423e-05 0.061630298258367820 8.3400742742353185e-09 -4.9799257552260751e-08 0.75000000000000000 0.18750000000000000 0.74999862232013659 0.18748335271318647 
0.81250000000000000 0.18750000000000000 0.0000000000000000 -1.3800559753034364e-06 -1.7655553436202119e-05 0.045938143457370961 9.8516672213673219e-09 -4.2078731023334420e-08 0.81250000000000000 0.18750000000000000 0.81249861994402472 0.18748234444656384 
0.87500000000000000 0.18750000000000000 0.0000000000000000 -1.3729171915512880e-06 -1.8596799025795882e-05 0.034364183595679387 1.1800813990904594e-08 -6.7381306486074513e-08 0.87500000000000000 0.18750000000000000 0.87499862708280840 0.18748140320097420 
0.93750000000000000 0.18750000000000000 0.0000000000000000 -1.3617985052476746e-06 -1.9473858788012246e-05 0.023337974843279329 1.5357661207020982e-08 2.6618678832277092e-08 0.93750000000000000 0.18750000000000000 0.93749863820149482 0.18748052614121199 
1.0000000000000000 0.18750000000000000 0.0000000000000000 -1.3514125298942950e-06 -2.0295860614287569e-05 0.063433667911813083 0.0000000000000000 -2.5599580140046805e-07 1.0000000000000000 0.18750000000000000 0.99999864858747012 0.18747970413938572 
0.062500000000000000 0.25000000000000000 0.0000000000000000 4.1098105522076591e-09 -1.3829736879024224e-06 0.32966299452750919 -4.7177231715631605e-08 -5.5853750395252319e-07 0.062500000000000000 0.25000000000000000 0.062500004109810547 0.24999861702631207 
0.0000000000000000 0.25000000000000000 0.0000000000000000 2.8985402221713300e-24 0.0000000000000000 0.13258816377027982 1.2990445551676478e-22 1.9537870808931530e-06 0.0000000000000000 0.25000000000000000 2.8985402221713300e-24 0.25000000000000000 
0.12500000000000000 0.25000000000000000 0.0000000000000000 1.2233301075968178e-08 -2.7766092766989330e-06 0.38361363607384869 9.0319471105605028e-08 3.1136704008942209e-07 0.12500000000000000 0.25000000000000000 0.12500001223330107 0.24999722339072331 
0.18750000000000000 0.25000000000000000 0.0000000000000000 1.5101912002943089e-08 -4.2216482959902068e-06 0.36546559386519845 -2.6278773469132169e-07 -1.8648622313326585e-07 0.18750000000000000 0.25000000000000000 0.18750001510191197 0.24999577835170397 
0.25000000000000000 0.25000000000000000 0.0000000000000000 1.8880375722852684e-08 -5.6948673355475510e-06 0.95456132335651389 7.7784656198863728e-07 7.5331166471846977e-07 0.25000000000000000 0.25000000000000000 0.25000001888037571 0.24999430513266449 
0.31250000000000000 0.25000000000000000 0.0000000000000000 -1.9496478092515950e-07 -7.3605814755006872e-06 0.29035853241883441 -8.2549190256362166e-08 -2.5223397188081393e-07 0.31250000000000000 0.25000000000000000 0.31249980503521907 0.24999263941852454 
0.37500000000000000 0.25000000000000000 0.0000000000000000 -3.6678079963568996e-07 -8.9272682867301454e-06 0.26800223179897048 8.8887051879471801e-08 1.7832499138493961e-08 0.37500000000000000 0.25000000000000000 0.37499963321920043 0.24999107273171325 
0.43750000000000000 0.25000000000000000 0.0000000000000000 -5.0032848605105342e-07 -1.0408969223834184e-05 0.22106430887687556 4.0016683939776830e-08 -4.7930481191792556e-08 0.43750000000000000 0.25000000000000000 0.43749949967151397 0.24998959103077614 
0.50000000000000000 0.25000000000000000 0.0000000000000000 -5.9884455691043870e-07 -1.1810823929054014e-05 0.18461311358126667 4.5303777891779089e-08 -3.6743566204560298e-08 0.50000000000000000 0.25000000000000000 0.49999940115544311 0.24998818917607094 
0.56250000000000000 0.25000000000000000 0.0000000000000000 -6.6596651300603599e-07 -1.3134879293355465e-05 0.15333530286988664 3.8732027874386901e-08 -4.3648360488709771e-08 0.56250000000000000 0.25000000000000000 0.56249933403348695 0.24998686512070664 
0.62500000000000000 0.25000000000000000 0.0000000000000000 -7.0570550805550972e-07 -1.4381906083983108e-05 0.12661164092106234 3.6191682813873436e-08 -4.5947319139231405e-08 0.62500000000000000 0.25000000000000000 0.62499929429449186 0.24998561809391598 
0.68750000000000000 0.25000000000000000 0.0000000000000000 -7.2243586340661407e-07 -1.5552315369014187e-05 0.10362797701270572 3.3587962288332329e-08 -4.7668372892166760e-08 0.68750000000000000 0.25000000000000000 0.68749927756413676 0.24998444768463099 
0.75000000000000000 0.25000000000000000 0.0000000000000000 -7.2087844643429371e-07 -1.6646756398602705e-05 0.083951775181749747 3.1899207219719211e-08 -5.0462312486112929e-08 0.75000000000000000 0.25000000000000000 0.74999927912155362 0.24998335324360141 
0.81250000000000000 0.25000000000000000 0.0000000000000000 -7.0609362733735043e-07 -1.7666528265156255e-05 0.067415765878538078 3.0590226511470976e-08 -4.2685632610249252e-08 0.81250000000000000 0.25000000000000000 0.81249929390637277 0.24998233347173485 
0.87500000000000000 0.25000000000000000 0.0000000000000000 -6.8344185446578044e-07 -1.8613711024649053e-05 0.054155908820140077 2.9938258321201937e-08 -6.9524516355919234e-08 0.87500000000000000 0.25000000000000000 0.87499931655814567 0.24998138628897534 
0.93750000000000000 0.25000000000000000 0.0000000000000000 -6.5847406985436432e-07 -1.9491308949141830e-05 0.039852684366482781 3.1142390626001983e-08 3.5305039309880307e-08 0.93750000000000000 0.25000000000000000 0.93749934152593017 0.24998050869105085 
1.0000000000000000 0.25000000000000000 0.0000000000000000 -6.3625254303881799e-07 -2.0308520369961801e-05 0.10517875317701357 0.0000000000000000 -3.0119462701523141e-07 1.0000000000000000 0.25000000000000000 0.99999936374745702 0.24997969147963003 
0.062500000000000000 0.31250000000000000 0.0000000000000000 9.3303587739261174e-09 -1.3974688543254500e-06 0.25057611267180185 -2.8113914408439226e-08 -4.8849750268980585e-07 0.062500000000000000 0.31250000000000000 0.062500009330358777 0.31249860253114564 
0.0000000000000000 0.31250000000000000 0.0000000000000000 -2.3656679753752663e-25 0.0000000000000000 -0.17533582316235544 -9.0933118860717007e-22 1.8255743049467919e-06 0.0000000000000000 0.31250000000000000 -2.3656679753752663e-25 0.31250000000000000 
0.12500000000000000 0.31250000000000000 0.0000000000000000 3.7522922046214422e-08 -2.7975588861804196e-06 0.29041405995825664 -2.6919460819036538e-08 2.0581217085690175e-07 0.12500000000000000 0.31250000000000000 0.12500003752292208 0.31249720244111384 
0.18750000000000000 0.31250000000000000 0.0000000000000000 7.4755741343896420e-08 -4.2404521645906606e-06 0.34233153652947856 7.4002405329031646e-08 7.0852528766934045e-08 0.18750000000000000 0.31250000000000000 0.18750007475574135 0.31249575954783543 
0.25000000000000000 0.31250000000000000 0.0000000000000000 1.1159350529841141e-07 -5.7139012644880536e-06 0.31694364273823300 -2.1377799926908333e-07 -8.6395166784457032e-08 0.25000000000000000 0.31250000000000000 0.25000011159350533 0.31249428609873547 
0.31250000000000000 0.31250000000000000 0.0000000000000000 1.5331326780918043e-07 -7.1942817878725752e-06 0.75220887661581315 5.6281152486134793e-07 5.4043685085573652e-07 0.31250000000000000 0.31250000000000000 0.31250015331326780 0.31249280571821214 
0.37500000000000000 0.31250000000000000 0.0000000000000000 3.6017099010398328e-08 -8.8009947722462496e-06 0.25756146833858540 -7.4492201278599318e-08 -1.8896386865601987e-07 0.37500000000000000 0.31250000000000000 0.37500003601709903 0.31249119900522776 
0.43750000000000000 0.31250000000000000 0.0000000000000000 -4.8507199726819794e-08 -1.0315394866579840e-05 0.24345017185217696 6.0579734116824616e-08 9.0962278416404845e-09 0.43750000000000000 0.31250000000000000 0.43749995149280035 0.31248968460513343 
0.50000000000000000 0.31250000000000000 0.0000000000000000 -1.0518967589376124e-07 -1.1747446496042870e-05 0.20520770504502991 2.2476855210300758e-08 -4.4329138296871724e-08 0.50000000000000000 0.31250000000000000 0.49999989481032409 0.31248825255350393 
0.56250000000000000 0.31250000000000000 0.0000000000000000 -1.3607382074040387e-07 -1.3098491787310315e-05 0.17590615923391281 2.7529901263830428e-08 -3.7452821433373850e-08 0.56250000000000000 0.31250000000000000 0.56249986392617923 0.31248690150821273 
0.62500000000000000 0.31250000000000000 0.0000000000000000 -1.4407802141142344e-07 -1.4368802053974417e-05 0.15058368469946945 2.3260553646734757e-08 -4.4195107789016290e-08 0.62500000000000000 0.31250000000000000 0.62499985592197860 0.31248563119794603 
0.68750000000000000 0.31250000000000000 0.0000000000000000 -1.3267055219556503e-07 -1.5558343210138416e-05 0.12871993717073629 2.2354329420681503e-08 -4.6030875389071151e-08 0.68750000000000000 0.31250000000000000 0.68749986732944779 0.31248444165678985 
0.75000000000000000 0.31250000000000000 0.0000000000000000 -1.0585359438369917e-07 -1.6667338579064302e-05 0.10956292709887135 2.1641263333037975e-08 -4.9694114745412861e-08 0.75000000000000000 0.31250000000000000 0.74999989414640567 0.31248333266142092 
0.81250000000000000 0.31250000000000000 0.0000000000000000 -6.8127914466075729e-08 -1.7696671670962137e-05 0.092834778881988253 2.1433167524093706e-08 -4.2937105130049144e-08 0.81250000000000000 0.31250000000000000 0.81249993187208569 0.31248230332832905 
0.87500000000000000 0.31250000000000000 0.0000000000000000 -2.4491087846128785e-08 -1.8648051621611362e-05 0.078522846519123557 2.2764451683209218e-08 -6.9956732533186319e-08 0.87500000000000000 0.31250000000000000 0.87499997550891206 0.31248135194837839 
0.93750000000000000 0.31250000000000000 0.0000000000000000 1.9613820145827983e-08 -1.9524300153173646e-05 0.061552676041411292 2.2504134282814739e-08 3.7380022038917102e-08 0.93750000000000000 0.31250000000000000 0.93750001961382001 0.31248047569984688 
1.0000000000000000 0.31250000000000000 0.0000000000000000 5.8901796856574312e-08 -2.0334001974363871e-05 0.15664946898473309 0.0000000000000000 -3.2519314449870096e-07 1.0000000000000000 0.31250000000000000 1.0000000589017968 0.31247966599802562 
0.062500000000000000 0.37500000000000000 0.0000000000000000 1.4359377564834136e-08 -1.4245939686194231e-06 0.18308475209012817 -6.6522931081627633e-08 -4.9077327391944014e-07 0.062500000000000000 0.37500000000000000 0.062500014359377562 0.37499857540603138 
0.0000000000000000 0.37500000000000000 0.0000000000000000 1.9147715759019884e-24 0.0000000000000000 -0.46698723911777046 -2.0784712881931251e-21 1.8431074997472463e-06 0.0000000000000000 0.37500000000000000 1.9147715759019884e-24 0.37500000000000000 
0.12500000000000000 0.37500000000000000 0.0000000000000000 6.0985283341279230e-08 -2.8437627783602199e-06 0.22036274164770112 -9.3879206014324656e-09 2.0650397872120859e-07 0.12500000000000000 0.37500000000000000 0.12500006098528335 0.37499715623722163 
0.18750000000000000 0.37500000000000000 0.0000000000000000 1.2764033582875183e-07 -4.2971007368474692e-06 0.26846615359203224 -2.9668945118523767e-08 -1.9503641363936122e-09 0.18750000000000000 0.37500000000000000 0.18750012764033583 0.37499570289926315 
0.25000000000000000 0.37500000000000000 0.0000000000000000 2.0522142980807118e-07 -5.7712318268985554e-06 0.30555462546610695 5.8947951892338483e-08 9.8969692165324195e-08 0.25000000000000000 0.37500000000000000 0.25000020522142979 0.37499422876817312 
0.31250000000000000 0.37500000000000000 0.0000000000000000 2.8398599026521587e-07 -7.2550712412505629e-06 0.28177063475825370 -1.5838342805680390e-07 -8.4494593459125073e-08 0.31250000000000000 0.37500000000000000 0.31250028398599028 0.37499274492875873 
0.37500000000000000 0.37500000000000000 0.0000000000000000 3.6876482274939863e-07 -8.7259516347095600e-06 0.60448654467064744 4.2070542987192164e-07 3.9885546700970783e-07 0.37500000000000000 0.37500000000000000 0.37500036876482273 0.37499127404836535 
0.43750000000000000 0.37500000000000000 0.0000000000000000 3.3656952889597952e-07 -1.0270966730417079e-05 0.23732660299265404 -5.4658288623650141e-08 -1.5130967851266253e-07 0.43750000000000000 0.37500000000000000 0.43750033656952886 0.37498972903326960 
0.50000000000000000 0.37500000000000000 0.0000000000000000 3.2901904709256085e-07 -1.1726329697659311e-05 0.22943223028181073 5.0087049772974279e-08 -4.0358141135693214e-10 0.50000000000000000 0.37500000000000000 0.50000032901904712 0.37498827367030235 
0.56250000000000000 0.37500000000000000 0.0000000000000000 3.4078451117378984e-07 -1.3099102595165771e-05 0.19909386429246567 1.9789732211309234e-08 -4.4654483660947971e-08 0.56250000000000000 0.37500000000000000 0.56250034078451117 0.37498690089740488 
0.62500000000000000 0.37500000000000000 0.0000000000000000 3.7049675319620302e-07 -1.4388463990729136e-05 0.17598664610227430 2.3815955446586334e-08 -4.0417793888763318e-08 0.62500000000000000 0.37500000000000000 0.62500037049675317 0.37498561153600929 
0.68750000000000000 0.37500000000000000 0.0000000000000000 4.1562686168347742e-07 -1.5593748755854557e-05 0.15565934832932929 2.0671432645329378e-08 -4.5966567007579094e-08 0.68750000000000000 0.37500000000000000 0.68750041562686171 0.37498440625124413 
0.75000000000000000 0.37500000000000000 0.0000000000000000 4.7297577574630656e-07 -1.6714581110402100e-05 0.13765957536056275 2.0538086311247527e-08 -4.9397285066686530e-08 0.75000000000000000 0.37500000000000000 0.75000047297577577 0.37498328541888964 
0.81250000000000000 0.37500000000000000 0.0000000000000000 5.3866936922150524e-07 -1.7751265595864295e-05 0.12144355791098849 2.0200947087254214e-08 -4.4304847933833899e-08 0.81250000000000000 0.37500000000000000 0.81250053866936922 0.37498224873440411 
0.87500000000000000 0.37500000000000000 0.0000000000000000 6.0816946075250431e-07 -1.8704941206004620e-05 0.10683266291898302 2.2369922239369968e-08 -6.9632191891264401e-08 0.87500000000000000 0.37500000000000000 0.87500060816946068 0.37498129505879402 