# For a description of the Tecplot format see the Tecplot User's guide.
#
Variables=x,y,z,s_u,s_v,s_p,x,y,ref_u,ref_v,u,v
Zone f=fepoint, n=9409, e=18432, et=quadrilateral, c=black
0.00000 0.00000 0.00000 0.0000000000000000 0.0000000000000000 3.6855558578591379 0.0000000000000000 0.0000000000000000 0.0000000000000000 0.0000000000000000 0.0000000000000000 0.0000000000000000 
0.010416666666666666 0.0000000000000000 0.0000000000000000 -5.5993261230908355e-07 -1.1936634510519500e-06 3.2074738857632563 8.4267423269524392e-06 0.0000000000000000 0.010416666666666666 0.0000000000000000 0.010416106734054357 -1.1936634510519500e-06 
0.010416666666666666 0.010416666666666666 0.0000000000000000 -1.5193601422439829e-07 -7.7518509780375491e-07 3.2809122827517245 6.0221154252833823e-06 2.3317189378575963e-06 0.010416666666666666 0.010416666666666666 0.010416514730652441 0.010415891481568863 
0.0000000000000000 0.010416666666666666 0.0000000000000000 0.0000000000000000 0.0000000000000000 3.4577574571563034 0.0000000000000000 4.6636457065661417e-06 0.0000000000000000 0.010416666666666666 0.0000000000000000 0.010416666666666666 
0.020833333333333332 0.0000000000000000 0.0000000000000000 -9.1553726069433992e-07 -1.8565912663990582e-06 2.6505063854028759 6.0140065221836987e-06 0.0000000000000000 0.020833333333333332 0.0000000000000000 0.020832417796072637 -1.8565912663990582e-06 
0.020833333333333332 0.010416666666666666 0.0000000000000000 -4.9745060389454256e-07 -1.5140575045453662e-06 2.7673159273629744 4.0670015126709151e-06 -6.7154767268569294e-07 0.020833333333333332 0.010416666666666666 0.020832835882729439 0.010415152609162120 
0.031250000000000000 0.0000000000000000 0.0000000000000000 -1.1981395495542194e-06 -2.3710800482911660e-06 2.2201861169131156 3.6299151586966104e-06 0.0000000000000000 0.031250000000000000 0.0000000000000000 0.031248801860450443 -2.3710800482911660e-06 
0.031250000000000000 0.010416666666666666 0.0000000000000000 -7.9864312840759451e-07 -2.0798294982407454e-06 2.3362110046842939 3.3852662916274335e-06 -6.1534330626565233e-07 0.031250000000000000 0.010416666666666666 0.031249201356871592 0.010414586837168423 
0.041666666666666664 0.0000000000000000 0.0000000000000000 -1.4439819301462091e-06 -2.8142815467506436e-06 1.9250319783526038 2.4103257256411850e-06 0.0000000000000000 0.041666666666666664 0.0000000000000000 0.041665222684736519 -2.8142815467506436e-06 
0.041666666666666664 0.010416666666666666 0.0000000000000000 -1.0664081276562077e-06 -2.5566804926881973e-06 2.0201023893082168 2.5178109447529693e-06 -7.8922591919374407e-07 0.041666666666666664 0.010416666666666666 0.041665600258539000 0.010414109986173979 
0.052083333333333336 0.0000000000000000 0.0000000000000000 -1.6677000358588081e-06 -3.2142451929788039e-06 1.7179646613797457 1.6818975473303933e-06 0.0000000000000000 0.052083333333333336 0.0000000000000000 0.052081665633297476 -3.2142451929788039e-06 
0.052083333333333336 0.010416666666666666 0.0000000000000000 -1.3100035455798313e-06 -2.9800295302015685e-06 1.7923875889693186 1.8492483649497559e-06 -6.6522337034368814e-07 0.052083333333333336 0.010416666666666666 0.052082023329787751 0.010413686637136465 
0.062500000000000000 0.0000000000000000 0.0000000000000000 -1.8763767543101423e-06 -3.5851014874021672e-06 1.5676950956773255 1.2272460402308940e-06 0.0000000000000000 0.062500000000000000 0.0000000000000000 0.062498123623245687 -3.5851014874021672e-06 
0.062500000000000000 0.010416666666666666 0.0000000000000000 -1.5353566345636174e-06 -3.3680730593965522e-06 1.6256224982369900 1.3766789395222490e-06 -5.5365827287012034e-07 0.062500000000000000 0.010416666666666666 0.062498464643365441 0.010413298593607269 
0.072916666666666671 0.0000000000000000 0.0000000000000000 -2.0737908807616447e-06 -3.9351125844619732e-06 1.4543843104537182 9.3663019135867641e-07 0.0000000000000000 0.072916666666666671 0.0000000000000000 0.072914592875785916 -3.9351125844619732e-06 
0.072916666666666671 0.010416666666666666 0.0000000000000000 -1.7463634991446406e-06 -3.7313596756584876e-06 1.4999833685511748 1.0597140335134785e-06 -4.4872992612565746e-07 0.072916666666666671 0.010416666666666666 0.072914920303167527 0.010412935306991007 
0.083333333333333329 0.0000000000000000 0.0000000000000000 -2.2621623567347612e-06 -4.2695870135115765e-06 1.3655446683172929 7.4598792601803086e-07 0.0000000000000000 0.083333333333333329 0.0000000000000000 0.083331071170976601 -4.2695870135115765e-06 
0.083333333333333329 0.010416666666666666 0.0000000000000000 -1.9457066373384292e-06 -4.0765343774687823e-06 1.4020256424415736 8.4274900684910859e-07 -3.6307424427986913e-07 0.083333333333333329 0.010416666666666666 0.083331387626695994 0.010412590132289198 
0.093750000000000000 0.0000000000000000 0.0000000000000000 -2.4429061677021776e-06 -4.5921555384785695e-06 1.2933016002024906 6.1658237315485473e-07 0.0000000000000000 0.093750000000000000 0.0000000000000000 0.093747557093832298 -4.5921555384785695e-06 
0.093750000000000000 0.010416666666666666 0.0000000000000000 -2.1352913318117389e-06 -4.4080404053062235e-06 1.3229988747676882 6.9178498821524511e-07 -2.9422079993240221e-07 0.093750000000000000 0.010416666666666666 0.093747864708668194 0.010412258626261358 
0.10416666666666667 0.0000000000000000 0.0000000000000000 -2.6169877867955601e-06 -4.9054200094674196e-06 1.2326348941338321 5.2577944737497174e-07 0.0000000000000000 0.10416666666666667 0.0000000000000000 0.10416404967887988 -4.9054200094674196e-06 
0.10416666666666667 0.010416666666666666 0.0000000000000000 -2.3165080841356780e-06 -4.7289920054222108e-06 1.2572151749337654 5.8437219041052943e-07 -2.3938890055272596e-07 0.10416666666666667 0.010416666666666666 0.10416435015858254 0.010411937674661241 
0.11458333333333333 0.0000000000000000 0.0000000000000000 -2.7851021718074881e-06 -5.2113113807886433e-06 1.1802799775682777 4.6001995323285688e-07 0.0000000000000000 0.11458333333333333 0.0000000000000000 0.11458054823116152 -5.2113113807886433e-06 
0.11458333333333333 0.010416666666666666 0.0000000000000000 -2.4903955514369123e-06 -5.0416550366235351e-06 1.2009352124020614 5.0603813150254755e-07 -1.9555738661179629e-07 0.11458333333333333 0.010416666666666666 0.11458084293778191 0.010411625011630043 
0.12500000000000000 0.0000000000000000 0.0000000000000000 -2.9477703482423412e-06 -5.5113021351889560e-06 1.1340614113936509 4.1100010450032422e-07 0.0000000000000000 0.12500000000000000 0.0000000000000000 0.12499705222965175 -5.5113021351889560e-06 
0.12500000000000000 0.010416666666666666 0.0000000000000000 -2.6577454458102497e-06 -5.3477284600597166e-06 1.1516547600677594 4.4750326249365576e-07 -1.6027101321739496e-07 0.12500000000000000 0.010416666666666666 0.12499734225455418 0.010411318938206607 
0.13541666666666666 0.0000000000000000 0.0000000000000000 -3.1053950741938470e-06 -5.8065391198174879e-06 1.0924904994998226 3.7351288893847397e-07 0.0000000000000000 0.13541666666666666 0.0000000000000000 0.13541356127159246 -5.8065391198174879e-06 
0.13541666666666666 0.010416666666666666 0.0000000000000000 -2.8191721596604269e-06 -5.6485171316621229e-06 1.1076580694412665 4.0275765176560824e-07 -1.3163538747416979e-07 0.13541666666666666 0.010416666666666666 0.13541384749450699 0.010411018149535003 
0.14583333333333334 0.0000000000000000 0.0000000000000000 -3.2582950452670063e-06 -6.0979304579214062e-06 1.0545208624797970 3.4420173337026951e-07 0.0000000000000000 0.14583333333333334 0.0000000000000000 0.14583007503828807 -6.0979304579214062e-06 
0.14583333333333334 0.010416666666666666 0.0000000000000000 -2.9751602290690416e-06 -5.9450425318250779e-06 1.0677405358733369 3.6784114465842318e-07 -1.0822115624418342e-07 0.14583333333333334 0.010416666666666666 0.14583035817310427 0.010410721624134841 
0.15625000000000000 0.0000000000000000 0.0000000000000000 -3.4067271491818258e-06 -6.3862045927054959e-06 1.0193980874344211 3.2083941477578927e-07 0.0000000000000000 0.15625000000000000 0.0000000000000000 0.15624659327285081 -6.3862045927054959e-06 
0.15625000000000000 0.010416666666666666 0.0000000000000000 -3.1260974242511381e-06 -6.2381164272433712e-06 1.0310357516565019 3.4008984497055464e-07 -8.8953294289029238e-08 0.15625000000000000 0.010416666666666666 0.15624687390257574 0.010410428550239423 
0.16666666666666666 0.0000000000000000 0.0000000000000000 -3.5509016584230888e-06 -6.6719517131073770e-06 0.98656555072269103 3.0190513197029821e-07 0.0000000000000000 0.16666666666666666 0.0000000000000000 0.16666311576500822 -6.6719517131073770e-06 
0.16666666666666666 0.010416666666666666 0.0000000000000000 -3.2722982854676757e-06 -6.5283915411025238e-06 0.99690632403336077 3.1767099455809510e-07 -7.3017713936374651e-08 0.16666666666666666 0.010416666666666666 0.16666339436838118 0.010410138275125562 
0.17708333333333334 0.0000000000000000 0.0000000000000000 -3.6909930104019643e-06 -6.9556536302988467e-06 0.95560412314882015 2.8633182454879127e-07 0.0000000000000000 0.17708333333333334 0.0000000000000000 0.17707964234032295 -6.9556536302988467e-06 
0.17708333333333334 0.010416666666666666 0.0000000000000000 -3.4140211673482886e-06 -6.8163974494991710e-06 0.96487371907847275 2.9929451478348302e-07 -5.9791068928035123e-08 0.17708333333333334 0.010416666666666666 0.17707991931216596 0.010409850269217168 
0.18750000000000000 0.0000000000000000 0.0000000000000000 -3.8271476917377484e-06 -7.2377058411563103e-06 0.92619262948597070 2.7335190415816225e-07 0.0000000000000000 0.18750000000000000 0.0000000000000000 0.18749617285230827 -7.2377058411563103e-06 
0.18750000000000000 0.010416666666666666 0.0000000000000000 -3.5514807865586637e-06 -7.1025666763598012e-06 0.93457222557148201 2.8403214855416818e-07 -4.8789912474846307e-08 0.18750000000000000 0.010416666666666666 0.18749644851921343 0.010409564099990306 
0.19791666666666666 0.0000000000000000 0.0000000000000000 -3.9594901424898374e-06 -7.5184341585234913e-06 0.89808126946051881 2.6240077853469202e-07 0.0000000000000000 0.19791666666666666 0.0000000000000000 0.19791270717652418 -7.5184341585234913e-06 
0.19791666666666666 0.010416666666666666 0.0000000000000000 -3.6848575997088794e-06 -7.3872540946093615e-06 0.90571805278212458 2.7120220533784767e-07 -3.9634411360714332e-08 0.19791666666666666 0.010416666666666666 0.19791298180906694 0.010409279412572055 
0.20833333333333334 0.0000000000000000 0.0000000000000000 -4.0881272611404181e-06 -7.7981074710663536e-06 0.87107331299610369 2.5305496184898764e-07 0.0000000000000000 0.20833333333333334 0.0000000000000000 0.20832924520607221 -7.7981074710663536e-06 
0.20833333333333334 0.010416666666666666 0.0000000000000000 -3.8143049105697405e-06 -7.6707516360805984e-06 0.87808810443139018 2.6029470326874256e-07 -3.2022430792423296e-08 0.20833333333333334 0.010416666666666666 0.20832951902842281 0.010408995915030585 
0.21875000000000000 0.0000000000000000 0.0000000000000000 -4.2131518945637368e-06 -8.0769476872252527e-06 0.84501220177844572 2.4499134277539166e-07 0.0000000000000000 0.21875000000000000 0.0000000000000000 0.21874578684810544 -8.0769476872252527e-06 
0.21875000000000000 0.010416666666666666 0.0000000000000000 -3.9399543261037676e-06 -7.9532996371940188e-06 0.85150507091524930 2.5092174109692687e-07 -2.5710879073985342e-08 0.21875000000000000 0.010416666666666666 0.21874606004567390 0.010408713367029475 
0.22916666666666666 0.0000000000000000 0.0000000000000000 -4.3346455762017600e-06 -8.3551375921751468e-06 0.81977226690075200 2.3795970568001055e-07 0.0000000000000000 0.22916666666666666 0.0000000000000000 0.22916233202109046 -8.3551375921751468e-06 
0.22916666666666666 0.010416666666666666 0.0000000000000000 -4.0619199948603647e-06 -8.2350957226232330e-06 0.82582673872602708 2.4278390090955035e-07 -2.0502119634387541e-08 0.22916666666666666 0.010416666666666666 0.22916260474667180 0.010408431570944043 
0.23958333333333334 0.0000000000000000 0.0000000000000000 -4.4526806978942935e-06 -8.6328271325479053e-06 0.79525192053179372 2.3176375808971249e-07 0.0000000000000000 0.23958333333333334 0.0000000000000000 0.23957888065263544 -8.6328271325479053e-06 
0.23958333333333334 0.010416666666666666 0.0000000000000000 -4.1803019355790185e-06 -8.5163018546720658e-06 0.80093817668330469 2.3564703391439603e-07 -1.6233941249062732e-08 0.23958333333333334 0.010416666666666666 0.23957915303139776 0.010408150364811993 
0.25000000000000000 0.0000000000000000 0.0000000000000000 -4.5673222489805216e-06 -8.9101384994081407e-06 0.77136857656668800 2.2624775074185747e-07 0.0000000000000000 0.25000000000000000 0.0000000000000000 0.24999543267775101 -8.9101384994081407e-06 
0.25000000000000000 0.010416666666666666 0.0000000000000000 -4.2951886775916825e-06 -8.7970499942356044e-06 0.77674592593243663 2.2932590701204915e-07 -1.2772053882039987e-08 0.25000000000000000 0.010416666666666666 0.24999570481132241 0.010407869616672430 
0.26041666666666669 0.0000000000000000 0.0000000000000000 -4.6786292207043292e-06 -9.1871702806866613e-06 0.74805480336693764 2.2128685997980452e-07 0.0000000000000000 0.26041666666666669 0.0000000000000000 0.26041198803744597 -9.1871702806866613e-06 
0.26041666666666669 0.010416666666666666 0.0000000000000000 -4.4066593746001532e-06 -9.0774466959390607e-06 0.75317361295992791 2.2367247390657962e-07 -1.0004400793389606e-08 0.26041666666666669 0.010416666666666666 0.26041226000729206 0.010407589219970729 
0.27083333333333331 0.0000000000000000 0.0000000000000000 -4.7866557489344529e-06 -9.4640008846129119e-06 0.72525537012847818 2.1678015579108581e-07 0.0000000000000000 0.27083333333333331 0.0000000000000000 0.27082854667758438 -9.4640008846129119e-06 
0.27083333333333331 0.010416666666666666 0.0000000000000000 -4.5147855110896974e-06 -9.3575768747193738e-06 0.73015859128596317 2.1856732378463768e-07 -7.8367949489221019e-09 0.27083333333333331 0.010416666666666666 0.27082881854782220 0.010407309089791946 
0.28125000000000000 0.0000000000000000 0.0000000000000000 -4.8914520502751756e-06 -9.7406913859583349e-06 0.70292495175799752 2.1264538170721278e-07 0.0000000000000000 0.28125000000000000 0.0000000000000000 0.28124510854794971 -9.7406913859583349e-06 
0.28125000000000000 0.010416666666666666 0.0000000000000000 -4.6196322904291728e-06 -9.6375069209341445e-06 0.70764933880999370 2.1391335307276376e-07 -6.1895342119379011e-09 0.28125000000000000 0.010416666666666666 0.28124538036770957 0.010407029159745730 
0.29166666666666669 0.0000000000000000 0.0000000000000000 -4.9930651935841418e-06 -1.0017287910846977e-05 0.68102632596257973 2.0881502672892841e-07 0.0000000000000000 0.29166666666666669 0.0000000000000000 0.29166167360147310 -1.0017287910846977e-05 
0.29166666666666669 0.010416666666666666 0.0000000000000000 -4.7212597718799900e-06 -9.9172872979156908e-06 0.68560341834189964 2.0963101862039797e-07 -4.9947492855496822e-09 0.29166666666666669 0.010416666666666666 0.29166194540689488 0.010406749379368750 
0.30208333333333331 0.0000000000000000 0.0000000000000000 -5.0915397392788531e-06 -1.0293823649379700e-05 0.65952894300561438 2.0523333312513169e-07 0.0000000000000000 0.30208333333333331 0.0000000000000000 0.30207824179359405 -1.0293823649379700e-05 
0.30208333333333331 0.010416666666666666 0.0000000000000000 -4.8197238077856682e-06 -1.0196954724453509e-05 0.66398586338841536 2.0565473315333841e-07 -4.1943067240975724e-09 0.30208333333333331 0.010416666666666666 0.30207851360952548 0.010406469711942213 
0.31250000000000000 0.0000000000000000 0.0000000000000000 -5.1869182716243354e-06 -1.0570320565578541e-05 0.63840778091808148 2.0185399168062030e-07 0.0000000000000000 0.31250000000000000 0.0000000000000000 0.31249481308172838 -1.0570320565578541e-05 
0.31250000000000000 0.010416666666666666 0.0000000000000000 -4.9150768204324518e-06 -1.0476534021481886e-05 0.64276788886417080 2.0193009729310529e-07 -3.7381369767529102e-09 0.31250000000000000 0.010416666666666666 0.31249508492317957 0.010406190132645184 
0.32291666666666669 0.0000000000000000 0.0000000000000000 -5.2792418437755134e-06 -1.0846790859288728e-05 0.61764242169870609 1.9863834827346310e-07 0.0000000000000000 0.32291666666666669 0.0000000000000000 0.32291138742482289 -1.0846790859288728e-05 
0.32291666666666669 0.010416666666666666 0.0000000000000000 -5.0073684492807668e-06 -1.0756039684905613e-05 0.62192585275741352 1.9841175203402041e-07 -3.5828910711844654e-09 0.32291666666666669 0.010416666666666666 0.32291165929821736 0.010405910626981761 
0.33333333333333331 0.0000000000000000 0.0000000000000000 -5.3685503512264218e-06 -1.1123238223358950e-05 0.59721630027598482 1.9555399515945161e-07 0.0000000000000000 0.33333333333333331 0.0000000000000000 0.33332796478298210 -1.1123238223358950e-05 
0.33333333333333331 0.010416666666666666 0.0000000000000000 -5.0966460926443239e-06 -1.1035477233388831e-05 0.60144041354722177 1.9506169670207436e-07 -3.6908536518318087e-09 0.33333333333333331 0.010416666666666666 0.33332823668724071 0.010405631189433275 
0.34375000000000000 0.0000000000000000 0.0000000000000000 -5.4548828461565180e-06 -1.1399658930723093e-05 0.57711608976077222 1.9257365464961093e-07 0.0000000000000000 0.34375000000000000 0.0000000000000000 0.34374454511715385 -1.1399658930723093e-05 
0.34375000000000000 0.010416666666666666 0.0000000000000000 -5.1829553628587887e-06 -1.1314844369924246e-05 0.58129584171595117 1.9184795980814545e-07 -4.0290575997877010e-09 0.34375000000000000 0.010416666666666666 0.34374481704463716 0.010405351822296740 
0.35416666666666669 0.0000000000000000 0.0000000000000000 -5.5382778027196008e-06 -1.1676042779263567e-05 0.55733119513231155 1.8967428719765746e-07 0.0000000000000000 0.35416666666666669 0.0000000000000000 0.35416112838886399 -1.1676042779263567e-05 
0.35416666666666669 0.010416666666666666 0.0000000000000000 -5.2663404701205035e-06 -1.1594131988287080e-05 0.56147945360387408 1.8874354005448331e-07 -4.5685583148714163e-09 0.35416666666666669 0.010416666666666666 0.35416140032619658 0.010405072534678379 
0.36458333333333331 0.0000000000000000 0.0000000000000000 -5.6187733414160211e-06 -1.1952373917066785e-05 0.53785333388454670 1.8683637317923646e-07 0.0000000000000000 0.36458333333333331 0.0000000000000000 0.36457771455999194 -1.1952373917066785e-05 
0.36458333333333331 0.010416666666666666 0.0000000000000000 -5.3468445471902649e-06 -1.1873325049483879e-05 0.54198114317503521 1.8572555599356944e-07 -5.2838353091408197e-09 0.36458333333333331 0.010416666666666666 0.36457798648878614 0.010404793341617181 
0.37500000000000000 0.0000000000000000 0.0000000000000000 -5.6964074191936954e-06 -1.2228631566531141e-05 0.51867618693859263 1.8404333027888719e-07 0.0000000000000000 0.37500000000000000 0.0000000000000000 0.37499430359258074 -1.2228631566531141e-05 
0.37500000000000000 0.010416666666666666 0.0000000000000000 -5.4245099248307220e-06 -1.2152403348609980e-05 0.52279299273450641 1.8277455819870861e-07 -6.1522959242419856e-09 0.37500000000000000 0.010416666666666666 0.37499457549007514 0.010404514263318057 
0.38541666666666669 0.0000000000000000 0.0000000000000000 -5.7712179907418443e-06 -1.2504790662497157e-05 0.49979510673794286 1.8128103752923468e-07 0.0000000000000000 0.38541666666666669 0.0000000000000000 0.38541089544867596 -1.2504790662497157e-05 
0.38541666666666669 0.010416666666666666 0.0000000000000000 -5.4993783660194461e-06 -1.2431342188823279e-05 0.50390894776307738 1.7987396901480577e-07 -7.1538614527125961e-09 0.38541666666666669 0.010416666666666666 0.38541116728830066 0.010404235324477843 
0.39583333333333331 0.0000000000000000 0.0000000000000000 -5.8432431455006756e-06 -1.2780822416943647e-05 0.48120687219559888 1.7853744386669928e-07 0.0000000000000000 0.39583333333333331 0.0000000000000000 0.39582749009018786 -1.2780822416943647e-05 
0.39583333333333331 0.010416666666666666 0.0000000000000000 -5.5714912655354238e-06 -1.2710112976197987e-05 0.48532454417511545 1.7700962320003067e-07 -8.2706200756399757e-09 0.39583333333333331 0.010416666666666666 0.39582776184206780 0.010403956553690467 
0.40625000000000000 0.0000000000000000 0.0000000000000000 -5.9125212241566440e-06 -1.3056694820685762e-05 0.46290948227635043 1.7580224415405013e-07 0.0000000000000000 0.40625000000000000 0.0000000000000000 0.40624408747877583 -1.3056694820685762e-05 
0.40625000000000000 0.010416666666666666 0.0000000000000000 -5.6408898203668046e-06 -1.2988683746868325e-05 0.46703667871382498 1.7416938892270529e-07 -9.4865342483376586e-09 0.40625000000000000 0.010416666666666666 0.40624435911017970 0.010403677982919799 
0.41666666666666669 0.0000000000000000 0.0000000000000000 -5.9790909177850946e-06 -1.3332373090808533e-05 0.44490198163335321 1.7306660938918412e-07 0.0000000000000000 0.41666666666666669 0.0000000000000000 0.41666068757574887 -1.3332373090808533e-05 
0.41666666666666669 0.010416666666666666 0.0000000000000000 -5.7076151754659510e-06 -1.3267019635978982e-05 0.44904341505875367 1.7134285320117146e-07 -1.0787192649832946e-08 0.41666666666666669 0.010416666666666666 0.41666095905149120 0.010403399647030687 
0.42708333333333331 0.0000000000000000 0.0000000000000000 -6.0429913523083458e-06 -1.3607820071189719e-05 0.42718431299321941 1.7032296076645954e-07 0.0000000000000000 0.42708333333333331 0.0000000000000000 0.42707729034198100 -1.3607820071189719e-05 
0.42708333333333331 0.010416666666666666 0.0000000000000000 -5.7717085486342297e-06 -1.3545083296430061e-05 0.43134381966887853 1.6852105936903913e-07 -1.2159598754789197e-08 0.42708333333333331 0.010416666666666666 0.42707756162478466 0.010403121583370235 
0.43750000000000000 0.0000000000000000 0.0000000000000000 -6.1042621605341179e-06 -1.3882996592339948e-05 0.40975719198330768 1.6756477943269728e-07 0.0000000000000000 0.43750000000000000 0.0000000000000000 0.43749389573783953 -1.3882996592339948e-05 
0.43750000000000000 0.010416666666666666 0.0000000000000000 -5.8332113377150655e-06 -1.3822835274160740e-05 0.41393782251870931 1.6569628679931996e-07 -1.3591989604418366e-08 0.43750000000000000 0.010416666666666666 0.43749416678866221 0.010402843831392505 
0.44791666666666669 0.0000000000000000 0.0000000000000000 -6.1629435437071302e-06 -1.4157861795866757e-05 0.39262200088368332 1.6478644549114428e-07 0.0000000000000000 0.44791666666666669 0.0000000000000000 0.44791050372312297 -1.4157861795866757e-05 
0.44791666666666669 0.010416666666666666 0.0000000000000000 -5.8921652127804575e-06 -1.4100234345701782e-05 0.39682609877892600 1.6286186519111142e-07 -1.5073679581407726e-08 0.44791666666666669 0.010416666666666666 0.44791077450145389 0.010402566432320964 
0.45833333333333331 0.0000000000000000 0.0000000000000000 -6.2190763242321171e-06 -1.4432373428112834e-05 0.37578069841154416 1.6198310114845202e-07 0.0000000000000000 0.45833333333333331 0.0000000000000000 0.45832711425700906 -1.4432373428112834e-05 
0.45833333333333331 0.010416666666666666 0.0000000000000000 -5.9486121955902697e-06 -1.4377237822896281e-05 0.38000996820087890 1.6001201730276393e-07 -1.6594924922651231e-08 0.45833333333333331 0.010416666666666666 0.45832738472113771 0.010402289428843770 
0.46875000000000000 0.0000000000000000 0.0000000000000000 -6.2727019909972541e-06 -1.4706488106894136e-05 0.35923574314466639 1.5915053388211705e-07 0.0000000000000000 0.46875000000000000 0.0000000000000000 0.46874372729800901 -1.4706488106894136e-05 
0.46875000000000000 0.010416666666666666 0.0000000000000000 -6.0025947282679761e-06 -1.4653801829004799e-05 0.36349130952853592 1.5714172523727714e-07 -1.8146805494739624e-08 0.46875000000000000 0.010416666666666666 0.46874399740527167 0.010402012864837662 
0.47916666666666669 0.0000000000000000 0.0000000000000000 -6.3238627385346615e-06 -1.4980161564747416e-05 0.34299002858978533 1.5628507637496509e-07 0.0000000000000000 0.47916666666666669 0.0000000000000000 0.47916034280392816 -1.4980161564747416e-05 
0.47916666666666669 0.010416666666666666 0.0000000000000000 -6.0541557328566293e-06 -1.4929881549846898e-05 0.34727248771285479 1.5424661637504973e-07 -1.9721120953205381e-08 0.47916666666666669 0.010416666666666666 0.47916061251093384 0.010401736785116819 
0.48958333333333331 0.0000000000000000 0.0000000000000000 -6.3726015010919870e-06 -1.5253348871669453e-05 0.32704682822223990 1.5338352055584576e-07 0.0000000000000000 0.48958333333333331 0.0000000000000000 0.48957696073183216 -1.5253348871669453e-05 
0.48958333333333331 0.010416666666666666 0.0000000000000000 -6.1033386631843218e-06 -1.5205431463165925e-05 0.33135629206561218 1.5132286580913224e-07 -2.1310298914653761e-08 0.48958333333333331 0.010416666666666666 0.48957722999467013 0.010401461235203498 
0.50000000000000000 0.0000000000000000 0.0000000000000000 -6.4189619825504327e-06 -1.5526004639974985e-05 0.31140974908255314 1.5044304360799693e-07 0.0000000000000000 0.50000000000000000 0.0000000000000000 0.49999358103801744 -1.5526004639974985e-05 
0.50000000000000000 0.010416666666666666 0.0000000000000000 -6.1501875502702373e-06 -1.5480405549017482e-05 0.31574588378212776 1.4836711273066415e-07 -2.2907313160241443e-08 0.50000000000000000 0.010416666666666666 0.49999384981244971 0.010401186261117648 
0.51041666666666663 0.0000000000000000 0.0000000000000000 -6.4629886830053714e-06 -1.5798083213605023e-05 0.29608269272448723 1.4746114422895705e-07 0.0000000000000000 0.51041666666666663 0.0000000000000000 0.51041020367798362 -1.5798083213605023e-05 
0.51041666666666663 0.010416666666666666 0.0000000000000000 -6.1947470423336271e-06 -1.5754757483661741e-05 0.30044475149831301 1.4537638872513794e-07 -2.4505610213017490e-08 0.51041666666666663 0.010416666666666666 0.51041047191962441 0.010400911909183004 
0.52083333333333337 0.0000000000000000 0.0000000000000000 -6.5047269227224604e-06 -1.6069538843973183e-05 0.28106982247779816 1.4443558774463370e-07 0.0000000000000000 0.52083333333333337 0.0000000000000000 0.52082682860641061 -1.6069538843973183e-05 
0.52083333333333337 0.010416666666666666 0.0000000000000000 -6.2370624403233727e-06 -1.6028440819175379e-05 0.28545667373813449 1.4234805631196320e-07 -2.6099042900012487e-08 0.52083333333333337 0.010416666666666666 0.52082709627089308 0.010400638225847490 
0.53125000000000000 0.0000000000000000 0.0000000000000000 -6.5442228640916099e-06 -1.6340325854233488e-05 0.26637553612554821 1.4136435893877122e-07 0.0000000000000000 0.53125000000000000 0.0000000000000000 0.53124345577713594 -1.6340325854233488e-05 
0.53125000000000000 0.010416666666666666 0.0000000000000000 -6.2771797297604055e-06 -1.6301409150778337e-05 0.27078568726174518 1.3927975639320638e-07 -2.7681809726037938e-08 0.53125000000000000 0.010416666666666666 0.53124372282027021 0.010400365257515887 
0.54166666666666663 0.0000000000000000 0.0000000000000000 -6.5815235321210222e-06 -1.6610398793686183e-05 0.25200444320535920 1.3824562171575979e-07 0.0000000000000000 0.54166666666666663 0.0000000000000000 0.54166008514313446 -1.6610398793686183e-05 
0.54166666666666663 0.010416666666666666 0.0000000000000000 -6.3151456095754992e-06 -1.6573616273690532e-05 0.25643606044871442 1.3616936353739791e-07 -2.9248399050180392e-08 0.54166666666666663 0.010416666666666666 0.54166035152105707 0.010400093050392975 
0.55208333333333337 0.0000000000000000 0.0000000000000000 -6.6166768339416540e-06 -1.6879712583899482e-05 0.23796134623150902 1.3507768485022214e-07 0.0000000000000000 0.55208333333333337 0.0000000000000000 0.55207671665649938 -1.6879712583899482e-05 
0.55208333333333337 0.010416666666666666 0.0000000000000000 -6.3510075185278161e-06 -1.6845016331184352e-05 0.24241227095015461 1.3301494823567869e-07 -3.0793537208262941e-08 0.55208333333333337 0.010416666666666666 0.55207698232581481 0.010399821650335482 
0.56250000000000000 0.0000000000000000 0.0000000000000000 -6.6497315777270657e-06 -1.7148222658013513e-05 0.22425122520279461 1.3185897330674446e-07 0.0000000000000000 0.56250000000000000 0.0000000000000000 0.56249335026842229 -1.7148222658013513e-05 
0.56250000000000000 0.010416666666666666 0.0000000000000000 -6.3848136597025189e-06 -1.7115563955379088e-05 0.22871898692201295 1.2981474547206168e-07 -3.2312139840874098e-08 0.56250000000000000 0.010416666666666666 0.56249361518634033 0.010399551102711289 
0.57291666666666663 0.0000000000000000 0.0000000000000000 -6.6807374913730833e-06 -1.7415885094602660e-05 0.21087922481373525 1.2858800466030446e-07 0.0000000000000000 0.57291666666666663 0.0000000000000000 0.57290998592917530 -1.7415885094602660e-05 
0.57291666666666663 0.010416666666666666 0.0000000000000000 -6.4166130235063978e-06 -1.7385214402226808e-05 0.21536105121188168 1.2656712909706102e-07 -3.3799265783691836e-08 0.57291666666666663 0.010416666666666666 0.57291025005364304 0.010399281452264439 
0.58333333333333337 0.0000000000000000 0.0000000000000000 -6.7097452412249156e-06 -1.7682656747401668e-05 0.19785064382468556 1.2526337036803250e-07 0.0000000000000000 0.58333333333333337 0.0000000000000000 0.58332662358809217 -1.7682656747401668e-05 
0.58333333333333337 0.010416666666666666 0.0000000000000000 -6.4464554095069801e-06 -1.7653923682064082e-05 0.20234346791731314 1.2327059163011373e-07 -3.5250072936459395e-08 0.58333333333333337 0.010416666666666666 0.58332688687792389 0.010399012742984602 
0.59375000000000000 0.0000000000000000 0.0000000000000000 -6.7368064510845824e-06 -1.7948495372148051e-05 0.18517092607093119 1.2188372167677652e-07 0.0000000000000000 0.59375000000000000 0.0000000000000000 0.59374326319354886 -1.7948495372148051e-05 
0.59375000000000000 0.010416666666666666 0.0000000000000000 -6.4743914473912922e-06 -1.7921648687047982e-05 0.18967139076409456 1.1992372926889032e-07 -3.6659775631548265e-08 0.59375000000000000 0.010416666666666666 0.59374352560855259 0.010398745017979619 
0.60416666666666663 0.0000000000000000 0.0000000000000000 -6.7619737216780029e-06 -1.8213359751755377e-05 0.17284565260425652 1.1844776010442147e-07 0.0000000000000000 0.60416666666666663 0.0000000000000000 0.60415990469294500 -1.8213359751755377e-05 