# For a description of the Tecplot format see the Tecplot User's guide.
#
Variables=x,y,z,s_u,s_v,s_p,x,y,ref_u,ref_v,u,v
Zone f=fepoint, n=289, e=512, et=quadrilateral, c=black
0.00000 0.00000 0.00000 0.0000000000000000 0.0000000000000000 1.7314330570916652 0.0000000000000000 0.0000000000000000 0.0000000000000000 0.0000000000000000 0.0000000000000000 0.0000000000000000 
0.062500000000000000 0.0000000000000000 0.0000000000000000 -1.5928111358778510e-06 -3.2263503536541936e-06 1.4362959434040967 1.0856826213379769e-06 0.0000000000000000 0.062500000000000000 0.0000000000000000 0.062498407188864125 -3.2263503536541936e-06 
0.062500000000000000 0.062500000000000000 0.0000000000000000 -4.0277479984287898e-07 -2.0532826380508641e-06 1.4694491580914228 6.1655690843389963e-07 2.9893370601914537e-07 0.062500000000000000 0.062500000000000000 0.062499597225200154 0.062497946717361953 
0.0000000000000000 0.062500000000000000 0.0000000000000000 0.0000000000000000 0.0000000000000000 1.5289633626191925 0.0000000000000000 8.4593512201021379e-07 0.0000000000000000 0.062500000000000000 0.0000000000000000 0.062500000000000000 
0.12500000000000000 0.0000000000000000 0.0000000000000000 -2.6602527767924789e-06 -5.1428105917773917e-06 1.0776694922693730 4.2535832755183192e-07 0.0000000000000000 0.12500000000000000 0.0000000000000000 0.12499733974722321 -5.1428105917773917e-06 
0.12500000000000000 0.062500000000000000 0.0000000000000000 -1.3468704664294002e-06 -4.2124610763468343e-06 1.1520771580712439 4.3411248934681059e-07 -1.3434915331566388e-07 0.12500000000000000 0.062500000000000000 0.12499865312953355 0.062495787538923653 
0.18750000000000000 0.0000000000000000 0.0000000000000000 -3.5059114588595267e-06 -6.8166327259820747e-06 0.84691359209970363 3.1038551935390001e-07 0.0000000000000000 0.18750000000000000 0.0000000000000000 0.18749649408854116 -6.8166327259820747e-06 
0.18750000000000000 0.062500000000000000 0.0000000000000000 -2.1473101842942379e-06 -6.0599051115366638e-06 0.90017105311946910 3.3929705391092870e-07 -4.9620671157962839e-08 0.18750000000000000 0.062500000000000000 0.18749785268981570 0.062493940094888463 
0.25000000000000000 0.0000000000000000 0.0000000000000000 -4.2028002737530219e-06 -8.4227498425582862e-06 0.68329699049103143 2.3206988507442769e-07 0.0000000000000000 0.25000000000000000 0.0000000000000000 0.24999579719972628 -8.4227498425582862e-06 
0.25000000000000000 0.062500000000000000 0.0000000000000000 -2.8190068146756392e-06 -7.7990418503286185e-06 0.72197906930713007 2.3928912720928742e-07 -3.7636179047752198e-08 0.25000000000000000 0.062500000000000000 0.24999718099318533 0.062492200958149668 
0.31250000000000000 0.0000000000000000 0.0000000000000000 -4.7784686600352250e-06 -1.0008132501691076e-05 0.55549307151327054 1.9052284886030539e-07 0.0000000000000000 0.31250000000000000 0.0000000000000000 0.31249522153133996 -1.0008132501691076e-05 
0.31250000000000000 0.062500000000000000 0.0000000000000000 -3.3783931502210790e-06 -9.4953592059372029e-06 0.58703696180714660 1.9196455570833798e-07 -2.8981924239248906e-08 0.31250000000000000 0.062500000000000000 0.31249662160684982 0.062490504640794066 
0.37500000000000000 0.0000000000000000 0.0000000000000000 -5.2472614280159945e-06 -1.1584386887711846e-05 0.44900621558678666 1.6414220109732644e-07 0.0000000000000000 0.37500000000000000 0.0000000000000000 0.37499475273857197 -1.1584386887711846e-05 
0.37500000000000000 0.062500000000000000 0.0000000000000000 -3.8380981118578311e-06 -1.1168494300356469e-05 0.47760835593661838 1.6048818333771503e-07 -3.0336059288881338e-08 0.37500000000000000 0.062500000000000000 0.37499616190188817 0.062488831505699637 
0.43750000000000000 0.0000000000000000 0.0000000000000000 -5.6194600668821932e-06 -1.3150163273121503e-05 0.35732102330545307 1.4377776397492449e-07 0.0000000000000000 0.43750000000000000 0.0000000000000000 0.43749438053993311 -1.3150163273121503e-05 
0.43750000000000000 0.062500000000000000 0.0000000000000000 -4.2086234981229419e-06 -1.2820386747187712e-05 0.38494013879409367 1.3794937325628148e-07 -3.5653532119666048e-08 0.43750000000000000 0.062500000000000000 0.43749579137650185 0.062487179613252807 
0.50000000000000000 0.0000000000000000 0.0000000000000000 -5.9044019492169734e-06 -1.4698957203230760e-05 0.27763074575705271 1.2572698463042925e-07 0.0000000000000000 0.50000000000000000 0.0000000000000000 0.49999409559805080 -1.4698957203230760e-05 
0.50000000000000000 0.062500000000000000 0.0000000000000000 -4.4994703336963684e-06 -1.4445719009565563e-05 0.30494126083161838 1.1942946260156104e-07 -4.2267966815714699e-08 0.50000000000000000 0.062500000000000000 0.49999550052966629 0.062485554280990431 
0.56250000000000000 0.0000000000000000 0.0000000000000000 -6.1116435255127043e-06 -1.6222500782219341e-05 0.20882872075686806 1.0826259686513057e-07 0.0000000000000000 0.56250000000000000 0.0000000000000000 0.56249388835647451 -1.6222500782219341e-05 
0.56250000000000000 0.062500000000000000 0.0000000000000000 -4.7197749684509120e-06 -1.6036467377597836e-05 0.23577341831594253 1.0266605366569918e-07 -4.8400937248435254e-08 0.56250000000000000 0.062500000000000000 0.56249528022503170 0.062483963532622401 
0.62500000000000000 0.0000000000000000 0.0000000000000000 -6.2514310965237901e-06 -1.7712523330698112e-05 0.15055374548521192 9.0628026204138697e-08 0.0000000000000000 0.62500000000000000 0.0000000000000000 0.62499374856890344 -1.7712523330698112e-05 
0.62500000000000000 0.062500000000000000 0.0000000000000000 -4.8786647978654225e-06 -1.7584173207579372e-05 0.17663048877913157 8.6676613558916743e-08 -5.2853075922668481e-08 0.62500000000000000 0.062500000000000000 0.62499512133520219 0.062482415826792419 
0.68750000000000000 0.0000000000000000 0.0000000000000000 -6.3349281836314025e-06 -1.9161882004356983e-05 0.10271229713286723 7.2750500315162180e-08 0.0000000000000000 0.68750000000000000 0.0000000000000000 0.68749366507181653 -1.9161882004356983e-05 
0.68750000000000000 0.062500000000000000 0.0000000000000000 -4.9854675389615185e-06 -1.9081295434170704e-05 0.12711628696077162 7.1225522754871638e-08 -5.4676239349638915e-08 0.68750000000000000 0.062500000000000000 0.68749501453246109 0.062480918704565840 
0.75000000000000000 0.0000000000000000 0.0000000000000000 -6.3743518260428106e-06 -2.0565533780741010e-05 0.065210445155738109 5.4319527912661574e-08 0.0000000000000000 0.75000000000000000 0.0000000000000000 0.74999362564817396 -2.0565533780741010e-05 
0.75000000000000000 0.062500000000000000 0.0000000000000000 -5.0498522019619781e-06 -2.0522277740611428e-05 0.086911996158135760 5.6194144375941710e-08 -5.3050821932510035e-08 0.75000000000000000 0.062500000000000000 0.74999495014779793 0.062479477722259390 
0.81250000000000000 0.0000000000000000 0.0000000000000000 -6.3830188399358291e-06 -2.1921639366455747e-05 0.037779112587820268 3.7084534329295878e-08 0.0000000000000000 0.81250000000000000 0.0000000000000000 0.81249361698115996 -2.1921639366455747e-05 
0.81250000000000000 0.062500000000000000 0.0000000000000000 -5.0819451149044495e-06 -2.1904704967821910e-05 0.055603114096265317 4.2738077165481376e-08 -4.7182296331196037e-08 0.81250000000000000 0.062500000000000000 0.81249491805488494 0.062478095295032177 
0.87500000000000000 0.0000000000000000 0.0000000000000000 -6.3751496521069873e-06 -2.3232979942071510e-05 0.019829943274917553 1.8395071970976598e-08 0.0000000000000000 0.87500000000000000 0.0000000000000000 0.87499362485034793 -2.3232979942071510e-05 
0.87500000000000000 0.062500000000000000 0.0000000000000000 -5.0924329667369814e-06 -2.3230821444574555e-05 0.032640176237851044 2.8463454988690549e-08 -3.6747724945522508e-08 0.87500000000000000 0.062500000000000000 0.87499490756703324 0.062476769178555429 
0.93750000000000000 0.0000000000000000 0.0000000000000000 -6.3649156186580238e-06 -2.4508487040876955e-05 0.010233167699146511 7.3613597713833677e-09 0.0000000000000000 0.93750000000000000 0.0000000000000000 0.93749363508438133 -2.4508487040876955e-05 
0.93750000000000000 0.062500000000000000 0.0000000000000000 -5.0925902783524375e-06 -2.4509582352414042e-05 0.017437650723182315 2.2616848958954327e-08 -2.2425192394853278e-08 0.93750000000000000 0.062500000000000000 0.93749490740972163 0.062475490417647585 
1.0000000000000000 0.0000000000000000 0.0000000000000000 -6.3621651278592845e-06 -2.5761678149004829e-05 0.0069081317353000288 0.0000000000000000 0.0000000000000000 1.0000000000000000 0.0000000000000000 0.99999363783487216 -2.5761678149004829e-05 
1.0000000000000000 0.062500000000000000 0.0000000000000000 -5.0937349901236644e-06 -2.5758962960409284e-05 0.010241552563656107 0.0000000000000000 -7.4623704286189634e-09 1.0000000000000000 0.062500000000000000 0.99999490626500986 0.062474241037039600 
0.062500000000000000 0.12500000000000000 0.0000000000000000 -1.8568819421324214e-07 -1.6128780248487661e-06 1.2363056188575918 7.2167539924129896e-08 4.1481083065025315e-07 0.062500000000000000 0.12500000000000000 0.062499814311805783 0.12499838712197515 
0.0000000000000000 0.12500000000000000 0.0000000000000000 0.0000000000000000 0.0000000000000000 1.2007941859948430 0.0000000000000000 5.2811121684972577e-07 0.0000000000000000 0.12500000000000000 0.0000000000000000 0.12500000000000000 
0.12500000000000000 0.12500000000000000 0.0000000000000000 -6.3422313505926357e-07 -3.4622534272330848e-06 1.0905647399135712 3.4516256838990351e-07 2.3873273903834460e-07 0.12500000000000000 0.12500000000000000 0.12499936577686492 0.12499653774657275 
0.18750000000000000 0.12500000000000000 0.0000000000000000 -1.2421295960974998e-06 -5.3806393940361592e-06 0.88567129723214943 3.2091235877577329e-07 9.2202643414221502e-08 0.18750000000000000 0.12500000000000000 0.18749875787040390 0.12499461936060596 
0.25000000000000000 0.12500000000000000 0.0000000000000000 -1.8044769868252576e-06 -7.2194992027125406e-06 0.71547630827538222 2.3142079635474284e-07 4.8832469980121938e-08 0.25000000000000000 0.12500000000000000 0.24999819552301314 0.12499278050079730 
0.31250000000000000 0.12500000000000000 0.0000000000000000 -2.2920700797798874e-06 -9.0112853006492186e-06 0.58444291873662213 1.8443907815508641e-07 3.2967636855262684e-08 0.31250000000000000 0.12500000000000000 0.31249770792992021 0.12499098871469937 
0.37500000000000000 0.12500000000000000 0.0000000000000000 -2.7014767165939769e-06 -1.0771400809343630e-05 0.47994320085242653 1.5042809301609574e-07 1.7590607483252872e-08 0.37500000000000000 0.12500000000000000 0.37499729852328340 0.12498922859919066 
0.43750000000000000 0.12500000000000000 0.0000000000000000 -3.0362469549574696e-06 -1.2501631180714915e-05 0.39307132614090712 1.2772711660931224e-07 3.5377460531582365e-09 0.43750000000000000 0.12500000000000000 0.43749696375304498 0.12498749836881928 
0.50000000000000000 0.12500000000000000 0.0000000000000000 -3.3022698761016432e-06 -1.4196965885056626e-05 0.31894150080450762 1.1001730435011490e-07 -9.7058889113828675e-09 0.50000000000000000 0.12500000000000000 0.49999669773012384 0.12498580303411493 
0.56250000000000000 0.12500000000000000 0.0000000000000000 -3.5062952351950861e-06 -1.5849580260449790e-05 0.25503641782259390 9.4976460422559277e-08 -2.1382961992037802e-08 0.56250000000000000 0.12500000000000000 0.56249649370476484 0.12498415041973955 
0.62500000000000000 0.12500000000000000 0.0000000000000000 -3.6554274946723004e-06 -1.7451054104470395e-05 0.20002624985341411 8.1410002845664942e-08 -3.0875836475752710e-08 0.62500000000000000 0.12500000000000000 0.62499634457250519 0.12498254894589554 
0.68750000000000000 0.12500000000000000 0.0000000000000000 -3.7569917427644507e-06 -1.8993725707266818e-05 0.15308283623030250 6.9030455395818972e-08 -3.7591787585577301e-08 0.68750000000000000 0.12500000000000000 0.68749624300825729 0.12498100627429275 
0.75000000000000000 0.12500000000000000 0.0000000000000000 -3.8186000779920868e-06 -2.0471714863895236e-05 0.11350376000440811 5.7577455806113291e-08 -4.1002534103881904e-08 0.75000000000000000 0.12500000000000000 0.74999618139992197 0.12497952828513610 
0.81250000000000000 0.12500000000000000 0.0000000000000000 -3.8484001939227505e-06 -2.1881953962841243e-05 0.080553902763784865 4.8344307668208643e-08 -4.0528725279886281e-08 0.81250000000000000 0.12500000000000000 0.81249615159980604 0.12497811804603716 
0.87500000000000000 0.12500000000000000 0.0000000000000000 -3.8555556327346283e-06 -2.3225480533477913e-05 0.053558654564468844 3.7335844717080842e-08 -3.6170681414299618e-08 0.87500000000000000 0.12500000000000000 0.87499614444436713 0.12497677451946652 
0.93750000000000000 0.12500000000000000 0.0000000000000000 -3.8510366766298881e-06 -2.4509238568843478e-05 0.032437163035206155 3.6284194990128885e-08 -2.7558957820309526e-08 0.93750000000000000 0.12500000000000000 0.93749614896332323 0.12497549076143115 
1.0000000000000000 0.12500000000000000 0.0000000000000000 -3.8487941050516068e-06 -2.5748933619984438e-05 0.019781973964791810 0.0000000000000000 -1.8655289351512188e-08 1.0000000000000000 0.12500000000000000 0.99999615120589491 0.12497425106638001 
0.062500000000000000 0.18750000000000000 0.0000000000000000 -9.9743072002914884e-08 -1.3893413786710544e-06 0.97981383773114450 -2.0822898364601310e-09 3.8891795724811169e-07 0.062500000000000000 0.18750000000000000 0.062499900256927997 0.18749861065862136 
0.0000000000000000 0.18750000000000000 0.0000000000000000 0.0000000000000000 0.0000000000000000 0.92407313853131068 0.0000000000000000 4.3273072411282608e-07 0.0000000000000000 0.18750000000000000 0.0000000000000000 0.18750000000000000 
0.12500000000000000 0.18750000000000000 0.0000000000000000 -3.3598438247549315e-07 -3.0528323934481248e-06 0.92471095717452645 1.7090126659406856e-07 3.0417961833480667e-07 0.12500000000000000 0.18750000000000000 0.12499966401561750 0.18749694716760656 
0.18750000000000000 0.18750000000000000 0.0000000000000000 -6.8798521963093322e-07 -4.8750249441862733e-06 0.80572853757736962 2.1650123124131509e-07 1.7094389081700830e-07 0.18750000000000000 0.18750000000000000 0.18749931201478034 0.18749512497505583 
0.25000000000000000 0.18750000000000000 0.0000000000000000 -1.0914960185188615e-06 -6.7464745825516362e-06 0.67285370359516239 2.0013406951324066e-07 9.3400100146924702e-08 0.25000000000000000 0.18750000000000000 0.24999890850398152 0.18749325352541746 
0.31250000000000000 0.18750000000000000 0.0000000000000000 -1.4692361131204270e-06 -8.6007282291110472e-06 0.55854555876228151 1.6358331309618751e-07 5.8769392523624810e-08 0.31250000000000000 0.18750000000000000 0.31249853076388684 0.18749139927177086 
0.37500000000000000 0.18750000000000000 0.0000000000000000 -1.7972977367951536e-06 -1.0428439003818902e-05 0.46532430571672539 1.3329853957973654e-07 3.5305615608667544e-08 0.37500000000000000 0.18750000000000000 0.37499820270226319 0.18748957156099619 
0.43750000000000000 0.18750000000000000 0.0000000000000000 -2.0693237057306821e-06 -1.2223922426456242e-05 0.38821257983248009 1.1212680160596770e-07 1.6902792992519858e-08 0.43750000000000000 0.18750000000000000 0.43749793067629428 0.18748777607757353 
0.50000000000000000 0.18750000000000000 0.0000000000000000 -2.2858388065963740e-06 -1.3979628863339730e-05 0.32296877327865992 9.5855735073952898e-08 5.3377170255554931e-10 0.50000000000000000 0.18750000000000000 0.49999771416119337 0.18748602037113662 
0.56250000000000000 0.18750000000000000 0.0000000000000000 -2.4502798455648275e-06 -1.5686808077381361e-05 0.26692452911605274 8.2784554049091032e-08 -1.3786929029463563e-08 0.56250000000000000 0.18750000000000000 0.56249754972015442 0.18748431319192263 
0.62500000000000000 0.18750000000000000 0.0000000000000000 -2.5673635666001003e-06 -1.7336656655626624e-05 0.21845308954297346 7.1685894369442787e-08 -2.5868899446790443e-08 0.62500000000000000 0.18750000000000000 0.62499743263643337 0.18748266334334437 
0.68750000000000000 0.18750000000000000 0.0000000000000000 -2.6424468992717522e-06 -1.8921227471788937e-05 0.17642499449996227 6.2257592852845634e-08 -3.5354350178537597e-08 0.68750000000000000 0.18750000000000000 0.68749735755310060 0.18748107877252820 
0.75000000000000000 0.18750000000000000 0.0000000000000000 -2.6814143414150971e-06 -2.0434158981342947e-05 0.13985215124186109 5.4210592484606214e-08 -4.1918299731604443e-08 0.75000000000000000 0.18750000000000000 0.74999731858565866 0.18747956584101866 
0.81250000000000000 0.18750000000000000 0.0000000000000000 -2.6909561075629710e-06 -2.1871379503143765e-05 0.10774243894455872 4.8809300177297198e-08 -4.5127111417396068e-08 0.81250000000000000 0.18750000000000000 0.81249730904389239 0.18747812862049687 
0.87500000000000000 0.18750000000000000 0.0000000000000000 -2.6792454391882136e-06 -2.3231931999291851e-05 0.079264380719397828 4.1400604057321208e-08 -4.5036629969046699e-08 0.87500000000000000 0.18750000000000000 0.87499732075456083 0.18747676806800070 
0.93750000000000000 0.18750000000000000 0.0000000000000000 -2.6570935978487942e-06 -2.4519076724702191e-05 0.054564512409010189 4.5194701789126469e-08 -4.0455385936462554e-08 0.93750000000000000 0.18750000000000000 0.93749734290640230 0.18747548092327529 
1.0000000000000000 0.18750000000000000 0.0000000000000000 -2.6397138618338092e-06 -2.5742074954120522e-05 0.037390423414019158 0.0000000000000000 -3.6827883514391161e-08 1.0000000000000000 0.18750000000000000 0.99999736028613817 0.18747425792504588 
0.062500000000000000 0.25000000000000000 0.0000000000000000 -5.5482431079196735e-08 -1.2740289724963345e-06 0.75505764109704809 -5.1054825949457386e-08 3.2890480565003664e-07 0.062500000000000000 0.25000000000000000 0.062499944517568913 0.24999872597102749 
0.0000000000000000 0.25000000000000000 0.0000000000000000 0.0000000000000000 0.0000000000000000 0.69514308515044221 0.0000000000000000 3.5355523639696535e-07 0.0000000000000000 0.25000000000000000 0.0000000000000000 0.25000000000000000 
0.12500000000000000 0.25000000000000000 0.0000000000000000 -1.7703155440329848e-07 -2.8262679783306859e-06 0.74113352745917471 8.0582305682981705e-08 2.8673801894413230e-07 0.12500000000000000 0.25000000000000000 0.12499982296844560 0.24999717373202168 
0.18750000000000000 0.25000000000000000 0.0000000000000000 -3.6811221440104174e-07 -4.5685375982684372e-06 0.68090795081571132 1.2007421837962192e-07 2.1653475107678475e-07 0.18750000000000000 0.25000000000000000 0.18749963188778559 0.24999543146240175 
0.25000000000000000 0.25000000000000000 0.0000000000000000 -6.0703878493272690e-07 -6.4135827360903953e-06 0.59719754105897271 1.4232902128339901e-07 1.4460056267681894e-07 0.25000000000000000 0.25000000000000000 0.24999939296121507 0.24999358641726391 
0.31250000000000000 0.25000000000000000 0.0000000000000000 -8.5671353503232888e-07 -8.2933534055179051e-06 0.51167229893049937 1.2908228823135869e-07 9.1053659098700299e-08 0.31250000000000000 0.25000000000000000 0.31249914328646494 0.24999170664659445 
0.37500000000000000 0.25000000000000000 0.0000000000000000 -1.0835663481610341e-06 -1.0165504921782912e-05 0.43631879400317897 1.0966997512546207e-07 5.7850561963227612e-08 0.37500000000000000 0.25000000000000000 0.37499891643365185 0.24998983449507819 
0.43750000000000000 0.25000000000000000 0.0000000000000000 -1.2734222264866553e-06 -1.2010496808527973e-05 0.37255707180315367 9.2725861568210021e-08 3.3644916623405371e-08 0.43750000000000000 0.25000000000000000 0.43749872657777350 0.24998798950319148 
0.50000000000000000 0.25000000000000000 0.0000000000000000 -1.4218201535280692e-06 -1.3815056551011321e-05 0.31847466324794171 7.9165678944717464e-08 1.3892342966863359e-08 0.50000000000000000 0.25000000000000000 0.49999857817984644 0.24998618494344901 
0.56250000000000000 0.25000000000000000 0.0000000000000000 -1.5289517771244867e-06 -1.5567999392528269e-05 0.27205936272634257 6.8437098424634257e-08 -2.8730886650313305e-09 0.56250000000000000 0.25000000000000000 0.56249847104822293 0.24998443200060746 
0.62500000000000000 0.25000000000000000 0.0000000000000000 -1.5972350943875895e-06 -1.7259428418732065e-05 0.23178090225888123 5.9722609744255646e-08 -1.7196870578919041e-08 0.62500000000000000 0.25000000000000000 0.62499840276490559 0.24998274057158129 
0.68750000000000000 0.25000000000000000 0.0000000000000000 -1.6302267557305206e-06 -1.8880754267866819e-05 0.19643804818732602 5.2839505966244245e-08 -2.9152509688497594e-08 0.68750000000000000 0.25000000000000000 0.68749836977324430 0.24998111924573216 
0.75000000000000000 0.25000000000000000 0.0000000000000000 -1.6322948983894515e-06 -2.0424887402063256e-05 0.16492160484373239 4.7540545228687758e-08 -3.8730945272460426e-08 0.75000000000000000 0.25000000000000000 0.74999836770510164 0.24997957511259794 
0.81250000000000000 0.25000000000000000 0.0000000000000000 -1.6088315029573688e-06 -2.1886460650651017e-05 0.13609708743386986 4.5081274434887030e-08 -4.5732243525465131e-08 0.81250000000000000 0.25000000000000000 0.81249839116849720 0.24997811353934932 
0.87500000000000000 0.25000000000000000 0.0000000000000000 -1.5669570793608174e-06 -2.3262061979918599e-05 0.10898144287568762 4.0721362133348642e-08 -5.0326674337900752e-08 0.87500000000000000 0.25000000000000000 0.87499843304292069 0.24997673793802008 
0.93750000000000000 0.25000000000000000 0.0000000000000000 -1.5167452759427727e-06 -2.4550482127034189e-05 0.083651942933108236 4.8270603879174054e-08 -5.0967270890639873e-08 0.93750000000000000 0.25000000000000000 0.93749848325472407 0.24997544951787296 
1.0000000000000000 0.25000000000000000 0.0000000000000000 -1.4729817092439283e-06 -2.5753041724923574e-05 0.063603921855343637 0.0000000000000000 -5.2072651641107132e-08 1.0000000000000000 0.25000000000000000 0.99999852701829062 0.24997424695827508 
0.062500000000000000 0.31250000000000000 0.0000000000000000 -2.9132314185790698e-08 -1.2208008432988584e-06 0.56073900174451941 -7.3531283360435474e-08 2.8965634334635784e-07 0.062500000000000000 0.31250000000000000 0.062499970867685821 0.31249877919915670 
0.0000000000000000 0.31250000000000000 0.0000000000000000 0.0000000000000000 0.0000000000000000 0.49966295544477468 0.0000000000000000 3.0408308556288264e-07 0.0000000000000000 0.31250000000000000 0.0000000000000000 0.31250000000000000 
0.12500000000000000 0.31250000000000000 0.0000000000000000 -8.0027211991301601e-08 -2.7128161867401426e-06 0.56952681909033143 3.2262430577940075e-08 2.6240757225649112e-07 0.12500000000000000 0.31250000000000000 0.12499991997278802 0.31249728718381325 
0.18750000000000000 0.31250000000000000 0.0000000000000000 -1.6360728553323304e-07 -4.4042626758209966e-06 0.54519837004731098 5.7781321998035204e-08 2.1523967198756642e-07 0.18750000000000000 0.31250000000000000 0.18749983639271448 0.31249559573732416 
0.25000000000000000 0.31250000000000000 0.0000000000000000 -2.7520504050413066e-07 -6.2218611942260538e-06 0.50075423993539336 8.1896853248716208e-08 1.6214183489156637e-07 0.25000000000000000 0.31250000000000000 0.24999972479495949 0.31249377813880580 
0.31250000000000000 0.31250000000000000 0.0000000000000000 -3.9926640746086554e-07 -8.1027179244160725e-06 0.44758743678434754 8.5973781499590209e-08 1.1269867707008240e-07 0.31250000000000000 0.31250000000000000 0.31249960073359256 0.31249189728207560 
0.37500000000000000 0.31250000000000000 0.0000000000000000 -5.1672816522301632e-07 -9.9988179354771102e-06 0.39500435073606660 7.9688943373685616e-08 7.4493598800179045e-08 0.37500000000000000 0.31250000000000000 0.37499948327183480 0.31249000118206455 
0.43750000000000000 0.31250000000000000 0.0000000000000000 -6.1268401629802951e-07 -1.1877741831708483e-05 0.34785837822245735 6.9460512181365575e-08 4.5922856147981719e-08 0.43750000000000000 0.31250000000000000 0.43749938731598365 0.31248812225816830 
0.50000000000000000 0.31250000000000000 0.0000000000000000 -6.8021912294675655e-07 -1.3719060146253416e-05 0.30698469432219316 5.9950117455526343e-08 2.3343524865164757e-08 0.50000000000000000 0.31250000000000000 0.49999931978087703 0.31248628093985381 
0.56250000000000000 0.31250000000000000 0.0000000000000000 -7.1734501082436529e-07 -1.5508078826977055e-05 0.27166216687201322 5.2014753660794242e-08 4.5280319153833147e-09 0.56250000000000000 0.31250000000000000 0.56249928265498916 0.31248449192117306 
0.62500000000000000 0.31250000000000000 0.0000000000000000 -7.2472228549742123e-07 -1.7233198861080400e-05 0.24087769952795671 4.5653912728162671e-08 -1.1587417380857547e-08 0.62500000000000000 0.31250000000000000 0.62499927527771437 0.31248276680113890 
0.68750000000000000 0.31250000000000000 0.0000000000000000 -7.0443213479001320e-07 -1.8884871832863526e-05 0.21362581812449608 4.0937015026669990e-08 -2.5486950030592685e-08 0.68750000000000000 0.31250000000000000 0.68749929556786527 0.31248111512816706 
0.75000000000000000 0.31250000000000000 0.0000000000000000 -6.5950843050048866e-07 -2.0455117516088094e-05 0.18886488217622047 3.7764710090532021e-08 -3.7458327205512406e-08 0.75000000000000000 0.31250000000000000 0.74999934049156947 0.31247954488248392 
0.81250000000000000 0.31250000000000000 0.0000000000000000 -5.9404613373909014e-07 -2.1937186938896363e-05 0.16545096817990859 3.7392533262724371e-08 -4.7536610690883474e-08 0.81250000000000000 0.31250000000000000 0.81249940595386627 0.31247806281306106 
0.87500000000000000 0.31250000000000000 0.0000000000000000 -5.1381892459880549e-07 -2.3325178512944184e-05 0.14228247441792782 3.5496199486257570e-08 -5.5994986272647883e-08 0.87500000000000000 0.31250000000000000 0.87499948618107537 0.31247667482148705 
0.93750000000000000 0.31250000000000000 0.0000000000000000 -4.2738850903337607e-07 -2.4613465312119740e-05 0.11911888122746862 4.5864352255457295e-08 -6.1016357455931002e-08 0.93750000000000000 0.31250000000000000 0.93749957261149108 0.31247538653468787 
1.0000000000000000 0.31250000000000000 0.0000000000000000 -3.4760081836195678e-07 -2.5795749540814767e-05 0.097986181188612811 0.0000000000000000 -6.6332838061324494e-08 1.0000000000000000 0.31250000000000000 0.99999965239918165 0.31247420425045919 
0.062500000000000000 0.37500000000000000 0.0000000000000000 -1.1530272177352838e-08 -1.2066458602547862e-06 0.38844943809893456 -9.0471082965647533e-08 2.6218214569553103e-07 0.062500000000000000 0.37500000000000000 0.062499988469727825 0.37499879335413983 
0.0000000000000000 0.37500000000000000 0.0000000000000000 0.0000000000000000 0.0000000000000000 0.32577539272786415 0.0000000000000000 2.7437819035671125e-07 0.0000000000000000 0.37500000000000000 0.0000000000000000 0.37500000000000000 
0.12500000000000000 0.37500000000000000 0.0000000000000000 -1.3701368240495690e-08 -2.6759937378876663e-06 0.41306846697448191 -2.6685283396752701e-09 2.3959398334745761e-07 0.12500000000000000 0.37500000000000000 0.12499998629863175 0.37499732400626212 
0.18750000000000000 0.37500000000000000 0.0000000000000000 -1.8688772877687929e-08 -4.3448897469129173e-06 0.41341106577586290 1.3164795589894290e-08 2.0432217604482165e-07 0.18750000000000000 0.37500000000000000 0.18749998131122711 0.37499565511025307 
0.25000000000000000 0.37500000000000000 0.0000000000000000 -2.9899684861285383e-08 -6.1481006240014300e-06 0.39805793822035618 3.4832106549772284e-08 1.6404974065076231e-07 0.25000000000000000 0.37500000000000000 0.24999997010031513 0.37499385189937601 
0.31250000000000000 0.37500000000000000 0.0000000000000000 -4.3930961491203315e-08 -8.0274683945011853e-06 0.37326804673967623 4.3799051603281098e-08 1.2290075290005739e-07 0.31250000000000000 0.37500000000000000 0.31249995606903852 0.37499197253160549 
0.37500000000000000 0.37500000000000000 0.0000000000000000 -5.3465475557468704e-08 -9.9353519122681730e-06 0.34451623579226459 4.6252520870256456e-08 8.5904790626711531e-08 0.37500000000000000 0.37500000000000000 0.37499994653452445 0.37499006464808771 
0.43750000000000000 0.37500000000000000 0.0000000000000000 -5.0611695970784258e-08 -1.1835578582859701e-05 0.31601599640081240 4.3298153609934384e-08 5.5428932225854292e-08 0.43750000000000000 0.37500000000000000 0.43749994938830400 0.37498816442141708 
0.50000000000000000 0.37500000000000000 0.0000000000000000 -2.9761172535407649e-08 -1.3702358278653951e-05 0.28998687901693659 3.8610073796616759e-08 3.0819515566806273e-08 0.50000000000000000 0.37500000000000000 0.49999997023882742 0.37498629764172137 
0.56250000000000000 0.37500000000000000 0.0000000000000000 1.1457649864418637e-08 -1.5517596760664285e-05 0.26697852016709273 3.3922248298814997e-08 1.0348759918545487e-08 0.56250000000000000 0.37500000000000000 0.56250001145764983 0.37498448240323934 
0.62500000000000000 0.37500000000000000 0.0000000000000000 7.3231510190421251e-08 -1.7267854890505675e-05 0.24673345768448995 2.9980128785389902e-08 -7.1870098110421224e-09 0.62500000000000000 0.37500000000000000 0.62500007323151019 0.37498273214510952 
0.68750000000000000 0.37500000000000000 0.0000000000000000 1.5447742103527075e-07 -1.8942546306075189e-05 0.22866636742306615 2.7170369131169335e-08 -2.2566608117326862e-08 0.68750000000000000 0.37500000000000000 0.68750015447742108 0.37498105745369387 
0.75000000000000000 0.37500000000000000 0.0000000000000000 2.5328515125477285e-07 -2.0532835799941151e-05 0.21198234008259634 2.5624167820862903e-08 -3.6329892634360054e-08 0.75000000000000000 0.37500000000000000 0.75000025328515119 0.37497946716420000 
0.81250000000000000 0.37500000000000000 0.0000000000000000 3.6688920757971147e-07 -2.2030768386321172e-05 0.19566250616902772 2.6605387254860491e-08 -4.8745712608401875e-08 0.81250000000000000 0.37500000000000000 0.81250036688920757 0.37497796923161369 
0.87500000000000000 0.37500000000000000 0.0000000000000000 4.9119411496528466e-07 -2.3428327315630973e-05 0.17853996243988060 2.6627002179332341e-08 -6.0166507040748555e-08 0.87500000000000000 0.37500000000000000 0.87500049119411483 0.37497657167268444 