# For a description of the Tecplot format see the Tecplot User's guide.
#
Variables=x,y,z,s_u,s_v,s_p,x,y,ref_u,ref_v,u,v
Zone f=fepoint, n=289, e=512, et=quadrilateral, c=black
0.00000 0.00000 0.00000 0.0000000000000000 0.0000000000000000 1.7895599894030929 0.0000000000000000 0.0000000000000000 0.0000000000000000 0.0000000000000000 0.0000000000000000 0.0000000000000000 
0.062500000000000000 0.0000000000000000 0.0000000000000000 -1.5809669467077834e-06 -3.2313088626362272e-06 1.4686734595959703 1.1758003869237864e-06 0.0000000000000000 0.062500000000000000 0.0000000000000000 0.062498419033053289 -3.2313088626362272e-06 
0.062500000000000000 0.062500000000000000 0.0000000000000000 -3.9106322118679389e-07 -2.0522898256219675e-06 1.5047098448722769 6.7387434455070929e-07 3.2389484302971769e-07 0.062500000000000000 0.062500000000000000 0.062499608936778812 0.062497947710174369 
0.0000000000000000 0.062500000000000000 0.0000000000000000 0.0000000000000000 0.0000000000000000 1.5702232344809948 0.0000000000000000 9.2010050867676972e-07 0.0000000000000000 0.062500000000000000 0.0000000000000000 0.062500000000000000 
0.12500000000000000 0.0000000000000000 0.0000000000000000 -2.6440644406299600e-06 -5.1428455012341588e-06 1.0894140395117542 4.3797513429986474e-07 0.0000000000000000 0.12500000000000000 0.0000000000000000 0.12499735593555937 -5.1428455012341588e-06 
0.12500000000000000 0.062500000000000000 0.0000000000000000 -1.3329290644226997e-06 -4.2101478089968853e-06 1.1659537624036134 4.4746861617806060e-07 -1.4251722942749916e-07 0.12500000000000000 0.062500000000000000 0.12499866707093556 0.062495789852191001 
0.18750000000000000 0.0000000000000000 0.0000000000000000 -3.4886732495615595e-06 -6.8120537632503546e-06 0.85272967524204490 3.1457578208427094e-07 0.0000000000000000 0.18750000000000000 0.0000000000000000 0.18749651132675046 -6.8120537632503546e-06 
0.18750000000000000 0.062500000000000000 0.0000000000000000 -2.1329529289441017e-06 -6.0538569772073120e-06 0.90519310061484182 3.4580844981557767e-07 -4.4462214606862995e-08 0.18750000000000000 0.062500000000000000 0.18749786704707105 0.062493946143022790 
0.25000000000000000 0.0000000000000000 0.0000000000000000 -4.1856023735486896e-06 -8.4145599248438182e-06 0.68751087410860334 2.3396519565999056e-07 0.0000000000000000 0.25000000000000000 0.0000000000000000 0.24999581439762644 -8.4145599248438182e-06 
0.25000000000000000 0.062500000000000000 0.0000000000000000 -2.8047955410765938e-06 -7.7895644931934452e-06 0.72457855552239747 2.4030828883771442e-07 -3.1896198309081098e-08 0.25000000000000000 0.062500000000000000 0.24999719520445893 0.062492210435506797 
0.31250000000000000 0.0000000000000000 0.0000000000000000 -4.7616238861966920e-06 -9.9969536225008462e-06 0.55893737456836912 1.9226870665488554e-07 0.0000000000000000 0.31250000000000000 0.0000000000000000 0.31249523837611382 -9.9969536225008462e-06 
0.31250000000000000 0.062500000000000000 0.0000000000000000 -3.3644681491738049e-06 -9.4830152680316566e-06 0.58895874268467596 1.9250755706096099e-07 -2.3497903387796067e-08 0.31250000000000000 0.062500000000000000 0.31249663553185081 0.062490516984731966 
0.37500000000000000 0.0000000000000000 0.0000000000000000 -5.2308460132293442e-06 -1.1570559073506146e-05 0.45167911753477147 1.6618013050033177e-07 0.0000000000000000 0.37500000000000000 0.0000000000000000 0.37499476915398677 -1.1570559073506146e-05 
0.37500000000000000 0.062500000000000000 0.0000000000000000 -3.8244889306809618e-06 -1.1153675770181747e-05 0.47910221543073822 1.6113920345178548e-07 -2.5940484771963572e-08 0.37500000000000000 0.062500000000000000 0.37499617551106934 0.062488846324229817 
0.43750000000000000 0.0000000000000000 0.0000000000000000 -5.6034985009101046e-06 -1.3133880026812655e-05 0.35911641747877288 1.4597965868207560e-07 0.0000000000000000 0.43750000000000000 0.0000000000000000 0.43749439650149907 -1.3133880026812655e-05 
0.43750000000000000 0.062500000000000000 0.0000000000000000 -4.1953475466343148e-06 -1.2803329099742149e-05 0.38592871315841110 1.3873811637631387e-07 -3.2427669788013777e-08 0.43750000000000000 0.062500000000000000 0.43749580465245336 0.062487196670900254 
0.50000000000000000 0.0000000000000000 0.0000000000000000 -5.8889163557088605e-06 -1.4680350601578202e-05 0.27851098694727011 1.2791320628889559e-07 0.0000000000000000 0.50000000000000000 0.0000000000000000 0.49999411108364428 -1.4680350601578202e-05 
0.50000000000000000 0.062500000000000000 0.0000000000000000 -4.4865504810411300e-06 -1.4426569414382503e-05 0.30535408173437989 1.2024911733203621e-07 -4.0160405494046833e-08 0.50000000000000000 0.062500000000000000 0.49999551344951904 0.062485573430585618 
0.56250000000000000 0.0000000000000000 0.0000000000000000 -6.0966578302986784e-06 -1.6201682309482574e-05 0.20884314839015508 1.1027081532444244e-07 0.0000000000000000 0.56250000000000000 0.0000000000000000 0.56249390334216975 -1.6201682309482574e-05 
0.56250000000000000 0.062500000000000000 0.0000000000000000 -4.7072352385426929e-06 -1.6015330631142343e-05 0.23561034680862628 1.0340560036003171e-07 -4.7303788855132690e-08 0.56250000000000000 0.062500000000000000 0.56249529276476151 0.062483984669368865 
0.62500000000000000 0.0000000000000000 0.0000000000000000 -6.2369627049115531e-06 -1.7689599878593813e-05 0.14982528203475101 9.2319269197370857e-08 0.0000000000000000 0.62500000000000000 0.0000000000000000 0.62499376303729504 -1.7689599878593813e-05 
0.62500000000000000 0.062500000000000000 0.0000000000000000 -4.8665218169746650e-06 -1.7561133958693781e-05 0.17595649802704283 8.7255695094525319e-08 -5.2625253741144241e-08 0.62500000000000000 0.062500000000000000 0.62499513347818303 0.062482438866041316 
0.68750000000000000 0.0000000000000000 0.0000000000000000 -6.3209782311833348e-06 -1.9136958302872095e-05 0.10142090111890850 7.4005191364472783e-08 0.0000000000000000 0.68750000000000000 0.0000000000000000 0.68749367902176883 -1.9136958302872095e-05 
0.68750000000000000 0.062500000000000000 0.0000000000000000 -4.9737231002345238e-06 -1.9056424459438170e-05 0.12604317377888472 7.1594673671187152e-08 -5.5136598768633844e-08 0.68750000000000000 0.062500000000000000 0.68749502627689985 0.062480943575540564 
0.75000000000000000 0.0000000000000000 0.0000000000000000 -6.3608981113192179e-06 -2.0538706476977558e-05 0.063572646317870143 5.5037189090449503e-08 0.0000000000000000 0.75000000000000000 0.0000000000000000 0.74999363910188865 -2.0538706476977558e-05 
0.75000000000000000 0.062500000000000000 0.0000000000000000 -5.0384890542452148e-06 -2.0495628485455318e-05 0.085575651597462041 5.6346018709777028e-08 -5.3967254119341950e-08 0.75000000000000000 0.062500000000000000 0.74999496151094569 0.062479504371514553 
0.81250000000000000 0.0000000000000000 0.0000000000000000 -6.3700148513373239e-06 -2.1892985691850309e-05 0.036019360215313129 3.7256274411907789e-08 0.0000000000000000 0.81250000000000000 0.0000000000000000 0.81249362998514874 -2.1892985691850309e-05 
0.81250000000000000 0.062500000000000000 0.0000000000000000 -5.0709285556710106e-06 -2.1876304894120688e-05 0.054134388144738171 4.2736974066945361e-08 -4.8255084342905987e-08 0.81250000000000000 0.062500000000000000 0.81249492907144438 0.062478123695105879 
0.87500000000000000 0.0000000000000000 0.0000000000000000 -6.3625312478354786e-06 -2.3202541442604702e-05 0.018132126385673270 1.7964666870326481e-08 0.0000000000000000 0.87500000000000000 0.0000000000000000 0.87499363746875203 -2.3202541442604702e-05 
0.87500000000000000 0.062500000000000000 0.0000000000000000 -5.0817202657502384e-06 -2.3200661734964549e-05 0.031124530444583142 2.8380977464056523e-08 -3.7613027991973142e-08 0.87500000000000000 0.062500000000000000 0.87499491827973419 0.062476799338265034 
0.93750000000000000 0.0000000000000000 0.0000000000000000 -6.3526167962748439e-06 -2.4476252824987780e-05 0.0086829206228692547 6.7906143392381483e-09 0.0000000000000000 0.93750000000000000 0.0000000000000000 0.93749364738320373 -2.4476252824987780e-05 
0.93750000000000000 0.062500000000000000 0.0000000000000000 -5.0821500306723921e-06 -2.4477614454943652e-05 0.015893305525690047 2.2942583898061556e-08 -2.2739423253425189e-08 0.93750000000000000 0.062500000000000000 0.93749491784996930 0.062475522385545053 
1.0000000000000000 0.0000000000000000 0.0000000000000000 -6.3501327763949171e-06 -2.5727548586301883e-05 0.0053641674994688868 0.0000000000000000 0.0000000000000000 1.0000000000000000 0.0000000000000000 0.99999364986722361 -2.5727548586301883e-05 
1.0000000000000000 0.062500000000000000 0.0000000000000000 -5.0835605025126404e-06 -2.5725099816080936e-05 0.0086955889150647624 0.0000000000000000 -6.9190072395596303e-09 1.0000000000000000 0.062500000000000000 0.99999491643949734 0.062474274900183917 
0.062500000000000000 0.12500000000000000 0.0000000000000000 -1.7853954321487253e-07 -1.6102878029809767e-06 1.2566052841811839 8.1859849368650855e-08 4.3065607735954116e-07 0.062500000000000000 0.12500000000000000 0.062499821460456788 0.12499838971219702 
0.0000000000000000 0.12500000000000000 0.0000000000000000 0.0000000000000000 0.0000000000000000 1.2218180206430749 0.0000000000000000 5.5536746131531863e-07 0.0000000000000000 0.12500000000000000 0.0000000000000000 0.12500000000000000 
0.12500000000000000 0.12500000000000000 0.0000000000000000 -6.2320316054179472e-07 -3.4569875998194503e-06 1.1022381470230957 3.6046724797906518e-07 2.4875500795981343e-07 0.12500000000000000 0.12500000000000000 0.12499937679683946 0.12499654301240017 
0.18750000000000000 0.12500000000000000 0.0000000000000000 -1.2307435139603383e-06 -5.3732832935464753e-06 0.88921205234256295 3.2965745840944217e-07 9.4150405556444192e-08 0.18750000000000000 0.12500000000000000 0.18749876925648604 0.12499462671670646 
0.25000000000000000 0.12500000000000000 0.0000000000000000 -1.7932853141050185e-06 -7.2093722573053770e-06 0.71587598411070530 2.3256802164132090e-07 5.1046043027589249e-08 0.25000000000000000 0.12500000000000000 0.24999820671468589 0.12499279062774270 
0.31250000000000000 0.12500000000000000 0.0000000000000000 -2.2811241330777481e-06 -8.9985068196254921e-06 0.58413277034891797 1.8451691898944659e-07 3.5620204109509650e-08 0.31250000000000000 0.12500000000000000 0.31249771887586691 0.12499100149318036 
0.37500000000000000 0.12500000000000000 0.0000000000000000 -2.6907504534189860e-06 -1.0756241114458465e-05 0.47956609894153163 1.5029434658634238e-07 1.9817589534818539e-08 0.37500000000000000 0.12500000000000000 0.37499730924954661 0.12498924375888554 
0.43750000000000000 0.12500000000000000 0.0000000000000000 -3.0257359130911927e-06 -1.2484311469587446e-05 0.39265957130219248 1.2777824103884239e-07 5.2192153271527200e-09 0.43750000000000000 0.12500000000000000 0.43749697426408690 0.12498751568853041 
0.50000000000000000 0.12500000000000000 0.0000000000000000 -3.2919916697118208e-06 -1.4177640682829524e-05 0.31841811829835054 1.1020326663429151e-07 -8.5937107635027395e-09 0.50000000000000000 0.12500000000000000 0.49999670800833035 0.12498582235931717 
0.56250000000000000 0.12500000000000000 0.0000000000000000 -3.4962747455491349e-06 -1.5828358562809013e-05 0.25435342516723541 9.5204185752908429e-08 -2.0774463482500956e-08 0.56250000000000000 0.12500000000000000 0.56249650372525462 0.12498417164143717 
0.62500000000000000 0.12500000000000000 0.0000000000000000 -3.6456840516614497e-06 -1.7428017223625812e-05 0.19918333832662569 8.1609048209865438e-08 -3.0683040876382232e-08 0.62500000000000000 0.12500000000000000 0.62499635431594835 0.12498257198277639 
0.68750000000000000 0.12500000000000000 0.0000000000000000 -3.7475312319343167e-06 -1.8968934815939998e-05 0.15211239313593033 6.9165380733495062e-08 -3.7710762238446474e-08 0.68750000000000000 0.12500000000000000 0.68749625246876811 0.12498103106518406 
0.75000000000000000 0.12500000000000000 0.0000000000000000 -3.8094120939942643e-06 -2.0445210163881102e-05 0.11244489000486109 5.7666177986834116e-08 -4.1317395517006857e-08 0.75000000000000000 0.12500000000000000 0.74999619058790590 0.12497955478983612 
0.81250000000000000 0.12500000000000000 0.0000000000000000 -3.8394621254452462e-06 -2.1853748970669541e-05 0.079419479726616574 4.8470949862000964e-08 -4.0890081541375993e-08 0.81250000000000000 0.12500000000000000 0.81249616053787455 0.12497814625102933 
0.87500000000000000 0.12500000000000000 0.0000000000000000 -3.8468458628065430e-06 -2.3195555472704380e-05 0.052294581004929092 3.7600807279347802e-08 -3.6441281176304973e-08 0.87500000000000000 0.12500000000000000 0.87499615315413715 0.12497680444452730 
0.93750000000000000 0.12500000000000000 0.0000000000000000 -3.8425597891678082e-06 -2.4477540623007644e-05 0.030936336721360574 3.7106738517661167e-08 -2.7474975223955132e-08 0.93750000000000000 0.12500000000000000 0.93749615744021086 0.12497552245937697 
1.0000000000000000 0.12500000000000000 0.0000000000000000 -3.8405906452112085e-06 -2.5715388783005637e-05 0.018106272616516438 0.0000000000000000 -1.8330324388131566e-08 1.0000000000000000 0.12500000000000000 0.99999615940935482 0.12497428461121700 
0.062500000000000000 0.18750000000000000 0.0000000000000000 -9.5456318059657609e-08 -1.3866650562241447e-06 0.98975661383394209 6.7791804654247945e-09 3.9856280921622540e-07 0.062500000000000000 0.18750000000000000 0.062499904543681935 0.18749861333494378 
0.0000000000000000 0.18750000000000000 0.0000000000000000 0.0000000000000000 0.0000000000000000 0.93473698034140418 0.0000000000000000 4.4645500266684375e-07 0.0000000000000000 0.18750000000000000 0.0000000000000000 0.18750000000000000 
0.12500000000000000 0.18750000000000000 0.0000000000000000 -3.2877230162958284e-07 -3.0472044751078248e-06 0.93058367527821917 1.7695867861056312e-07 3.1271113234072427e-07 0.12500000000000000 0.18750000000000000 0.12499967122769838 0.18749695279552489 
0.18750000000000000 0.18750000000000000 0.0000000000000000 -6.7947347628248204e-07 -4.8669158888671804e-06 0.80759451066639176 2.2208459021147982e-07 1.7401240373322350e-07 0.18750000000000000 0.18750000000000000 0.18749932052652371 0.18749513308411114 
0.25000000000000000 0.18750000000000000 0.0000000000000000 -1.0829975510805549e-06 -6.7361552518919735e-06 0.67198790070818548 2.0208093541546426e-07 9.4883731900376536e-08 0.25000000000000000 0.18750000000000000 0.24999891700244889 0.18749326384474810 
0.31250000000000000 0.18750000000000000 0.0000000000000000 -1.4609563516497370e-06 -8.5880293601862723e-06 0.55682347493058426 1.6371544925791652e-07 6.0498928309492877e-08 0.31250000000000000 0.18750000000000000 0.31249853904364833 0.18749141197063982 
0.37500000000000000 0.18750000000000000 0.0000000000000000 -1.7892119606843486e-06 -1.0413429178277249e-05 0.46362426377086075 1.3280208856411611e-07 3.6991282351726409e-08 0.37500000000000000 0.18750000000000000 0.37499821078803924 0.18748958657082171 
0.43750000000000000 0.18750000000000000 0.0000000000000000 -2.0614020180771183e-06 -1.2206751882093620e-05 0.38673113279201782 1.1169107903997289e-07 1.8353361386914491e-08 0.43750000000000000 0.18750000000000000 0.43749793859798197 0.18748779324811790 
0.50000000000000000 0.18750000000000000 0.0000000000000000 -2.2780796492251651e-06 -1.3960440124103782e-05 0.32167329564719122 9.5547287163757592e-08 1.6348665141130877e-09 0.50000000000000000 0.18750000000000000 0.49999772192035080 0.18748603955987589 
0.56250000000000000 0.18750000000000000 0.0000000000000000 -2.4426981879642659e-06 -1.5665716237242563e-05 0.26575110595281803 8.2572984914094944e-08 -1.3026566599175756e-08 0.56250000000000000 0.18750000000000000 0.56249755730181217 0.18748433428376277 
0.62500000000000000 0.18750000000000000 0.0000000000000000 -2.5599753533612116e-06 -1.7313751769344664e-05 0.21736137329836316 7.1522327020811472e-08 -2.5407698040731470e-08 0.62500000000000000 0.18750000000000000 0.62499744002464663 0.18748268624823064 
0.68750000000000000 0.18750000000000000 0.0000000000000000 -2.6352589152522732e-06 -1.8896578593170547e-05 0.17539712021498013 6.2116736196694346e-08 -3.5134169541808555e-08 0.68750000000000000 0.18750000000000000 0.68749736474108480 0.18748110342140681 
0.75000000000000000 0.18750000000000000 0.0000000000000000 -2.6744201964589997e-06 -2.0407814441640119e-05 0.13887052052629947 5.4125219249028358e-08 -4.1881519146137350e-08 0.75000000000000000 0.18750000000000000 0.74999732557980359 0.18747959218555835 
0.81250000000000000 0.18750000000000000 0.0000000000000000 -2.6841398384789291e-06 -2.1843363645743852e-05 0.10675653229956843 4.8859266623577046e-08 -4.5201221074099405e-08 0.81250000000000000 0.18750000000000000 0.81249731586016150 0.18747815663635425 
0.87500000000000000 0.18750000000000000 0.0000000000000000 -2.6725949090010890e-06 -2.3202240713064687e-05 0.078148387581244524 4.1748750319388303e-08 -4.5195674851927718e-08 0.87500000000000000 0.18750000000000000 0.87499732740509095 0.18747679775928694 
0.93750000000000000 0.18750000000000000 0.0000000000000000 -2.6506274790051681e-06 -2.4487676583236737e-05 0.053145804622093819 4.6152254434174977e-08 -4.0496307743763739e-08 0.93750000000000000 0.18750000000000000 0.93749734937252105 0.18747551232341678 
1.0000000000000000 0.18750000000000000 0.0000000000000000 -2.6334864213408542e-06 -2.5708909717018603e-05 0.035700504666188064 0.0000000000000000 -3.7182643871298858e-08 1.0000000000000000 0.18750000000000000 0.99999736651357862 0.18747429109028299 
0.062500000000000000 0.25000000000000000 0.0000000000000000 -5.2797918576794915e-08 -1.2716977282938538e-06 0.75990865038391309 -4.4613038388967869e-08 3.3273420322199287e-07 0.062500000000000000 0.25000000000000000 0.062499947202081414 0.24999872830227174 
0.0000000000000000 0.25000000000000000 0.0000000000000000 0.0000000000000000 0.0000000000000000 0.70093468900759071 0.0000000000000000 3.6043877027211781e-07 0.0000000000000000 0.25000000000000000 0.0000000000000000 0.25000000000000000 
0.12500000000000000 0.25000000000000000 0.0000000000000000 -1.7239981801181953e-07 -2.8211894926831035e-06 0.74311171639505691 8.4266116402291144e-08 2.9037173292143432e-07 0.12500000000000000 0.25000000000000000 0.12499982760018198 0.24999717881050731 
0.18750000000000000 0.25000000000000000 0.0000000000000000 -3.6235478539585445e-07 -4.5608433609997998e-06 0.68064032643174655 1.2288912779284144e-07 2.1901648244593609e-07 0.18750000000000000 0.25000000000000000 0.18749963764521460 0.24999543915663899 
0.25000000000000000 0.25000000000000000 0.0000000000000000 -6.0093048533335223e-07 -6.4035152735174503e-06 0.59543001089497960 1.4388196462659802e-07 1.4597348329538563e-07 0.25000000000000000 0.25000000000000000 0.24999939906951466 0.24999359648472649 
0.31250000000000000 0.25000000000000000 0.0000000000000000 -8.5073321817854626e-07 -8.2810340211793326e-06 0.50921239867423129 1.2931467394180296e-07 9.1750513426669189e-08 0.31250000000000000 0.25000000000000000 0.31249914926678185 0.24999171896597883 
0.37500000000000000 0.25000000000000000 0.0000000000000000 -1.0777847834782859e-06 -1.0150925934742163e-05 0.43385536587131779 1.0918724373187271e-07 5.8623408847590996e-08 0.37500000000000000 0.25000000000000000 0.37499892221521652 0.24998984907406527 
0.43750000000000000 0.25000000000000000 0.0000000000000000 -1.2678148699524947e-06 -1.1993732116725053e-05 0.37037620560958068 9.2130911231673346e-08 3.4415374415610911e-08 0.43750000000000000 0.25000000000000000 0.43749873218513002 0.24998800626788328 
0.50000000000000000 0.25000000000000000 0.0000000000000000 -1.4163672525788290e-06 -1.3796219556097925e-05 0.31661227461778907 7.8639049610319478e-08 1.4560356573784435e-08 0.50000000000000000 0.25000000000000000 0.49999858363274735 0.24998620378044389 
0.56250000000000000 0.25000000000000000 0.0000000000000000 -1.5236508850250380e-06 -1.5547204141422356e-05 0.27046958340290217 6.8014063524247425e-08 -2.3452907009856776e-09 0.56250000000000000 0.25000000000000000 0.56249847634911498 0.24998445279585857 
0.62500000000000000 0.25000000000000000 0.0000000000000000 -1.5920910225021402e-06 -1.7236775298263800e-05 0.23041309665485377 5.9378121287579927e-08 -1.6810794290201053e-08 0.62500000000000000 0.25000000000000000 0.62499840790897754 0.24998276322470173 
0.68750000000000000 0.25000000000000000 0.0000000000000000 -1.6252408773529665e-06 -1.8856327020649472e-05 0.19525396093790751 5.2550933043238882e-08 -2.8891654761815071e-08 0.68750000000000000 0.25000000000000000 0.68749837475912268 0.24998114367297933 
0.75000000000000000 0.25000000000000000 0.0000000000000000 -1.6274589102857670e-06 -2.0398752348874843e-05 0.16388351836561116 4.7337595246230582e-08 -3.8587076571616119e-08 0.75000000000000000 0.25000000000000000 0.74999837254108970 0.24997960124765115 
0.81250000000000000 0.25000000000000000 0.0000000000000000 -1.6041279901759028e-06 -2.1858664855069199e-05 0.13514040538670521 4.5009200278931715e-08 -4.5698418115933139e-08 0.81250000000000000 0.25000000000000000 0.81249839587200967 0.24997814133514493 
0.87500000000000000 0.25000000000000000 0.0000000000000000 -1.5623691729968411e-06 -2.3232630145398867e-05 0.10797437927856864 4.0992454795883440e-08 -5.0477580223955513e-08 0.87500000000000000 0.25000000000000000 0.87499843763082696 0.24997676736985461 
0.93750000000000000 0.25000000000000000 0.0000000000000000 -1.5122799782079505e-06 -2.4519413119462904e-05 0.082425415651207520 4.8968370497103021e-08 -5.1202637312640568e-08 0.93750000000000000 0.25000000000000000 0.93749848772002176 0.24997548058688054 
1.0000000000000000 0.25000000000000000 0.0000000000000000 -1.4686685010867319e-06 -2.5720304575123160e-05 0.062116675854283397 0.0000000000000000 -5.3018841572009004e-08 1.0000000000000000 0.25000000000000000 0.99999853133149896 0.24997427969542488 
0.062500000000000000 0.31250000000000000 0.0000000000000000 -2.7378965703105624e-08 -1.2188390100707126e-06 0.56323718703661185 -6.8294518615140898e-08 2.9143278786907429e-07 0.062500000000000000 0.31250000000000000 0.062499972621034294 0.31249878116098989 
0.0000000000000000 0.31250000000000000 0.0000000000000000 0.0000000000000000 0.0000000000000000 0.50305551145405081 0.0000000000000000 3.0785627485103755e-07 0.0000000000000000 0.31250000000000000 0.0000000000000000 0.31250000000000000 
0.12500000000000000 0.31250000000000000 0.0000000000000000 -7.7027027614504415e-08 -2.7084358963601736e-06 0.56966467315334202 3.5484744690926821e-08 2.6396378437734916e-07 0.12500000000000000 0.31250000000000000 0.12499992297297237 0.31249729156410361 
0.18750000000000000 0.31250000000000000 0.0000000000000000 -1.5987552323634634e-07 -4.3973498064095521e-06 0.54364083012930708 5.9837602837826528e-08 2.1626719757833725e-07 0.18750000000000000 0.31250000000000000 0.18749984012447676 0.31249560265019355 
0.25000000000000000 0.31250000000000000 0.0000000000000000 -2.7118382022776563e-07 -6.2124749706897083e-06 0.49827372812949761 8.2646048402681025e-08 1.6286396278312388e-07 0.25000000000000000 0.31250000000000000 0.24999972881617974 0.31249378752502932 
0.31250000000000000 0.31250000000000000 0.0000000000000000 -3.9528145591781712e-07 -8.0909721608273953e-06 0.44474598723658215 8.6105076980119174e-08 1.1310061088018563e-07 0.31250000000000000 0.31250000000000000 0.31249960471854404 0.31249190902783924 
0.37500000000000000 0.31250000000000000 0.0000000000000000 -5.1294428669996899e-07 -9.9847936708151106e-06 0.39218653057890579 7.9318496682636037e-08 7.4822345927824922e-08 0.37500000000000000 0.31250000000000000 0.37499948705571334 0.31249001520632919 
0.43750000000000000 0.31250000000000000 0.0000000000000000 -6.0911532010808046e-07 -1.1861495468693389e-05 0.34530457389711960 6.8885747297134507e-08 4.6295048662511069e-08 0.43750000000000000 0.31250000000000000 0.43749939088467987 0.31248813850453133 
0.50000000000000000 0.31250000000000000 0.0000000000000000 -6.7684264581366231e-07 -1.3700681081502000e-05 0.30477192904899963 5.9369265951058872e-08 2.3733253660769707e-08 0.50000000000000000 0.31250000000000000 0.49999932315735413 0.31248629931891853 
0.56250000000000000 0.31250000000000000 0.0000000000000000 -7.1414191093479843e-07 -1.5487674121564322e-05 0.26977697249276877 5.1502437068865602e-08 4.8863169999941576e-09 0.56250000000000000 0.31250000000000000 0.56249928585808906 0.31248451232587843 
0.62500000000000000 0.31250000000000000 0.0000000000000000 -7.2168164369858335e-07 -1.7210875070285815e-05 0.23928109393603406 4.5212866898893141e-08 -1.1286098662842528e-08 0.62500000000000000 0.31250000000000000 0.62499927831835633 0.31248278912492972 
0.68750000000000000 0.31250000000000000 0.0000000000000000 -7.0154387643616034e-07 -1.8860726488116629e-05 0.21228176818248626 4.0547994160368938e-08 -2.5254109233921771e-08 0.68750000000000000 0.31250000000000000 0.68749929845612356 0.31248113927351190 
0.75000000000000000 0.31250000000000000 0.0000000000000000 -6.5675581137997221e-07 -2.0429236286876838e-05 0.18774135997296570 3.7447352909893887e-08 -3.7316258828417119e-08 0.75000000000000000 0.31250000000000000 0.74999934324418860 0.31247957076371313 
0.81250000000000000 0.31250000000000000 0.0000000000000000 -5.9140208039699205e-07 -2.1909642227496010e-05 0.16450366046523202 3.7139242258491490e-08 -4.7519735382195430e-08 0.81250000000000000 0.31250000000000000 0.81249940859791969 0.31247809035777246 
0.87500000000000000 0.31250000000000000 0.0000000000000000 -5.1124896143981319e-07 -2.3296027127904427e-05 0.14142229601373987 3.5549493012673986e-08 -5.6241243826042712e-08 0.87500000000000000 0.31250000000000000 0.87499948875103861 0.31247670397287214 
0.93750000000000000 0.31250000000000000 0.0000000000000000 -4.2486564209764806e-07 -2.4582742362750278e-05 0.11823602071898413 4.6011383295512769e-08 -6.1506412118858304e-08 0.93750000000000000 0.31250000000000000 0.93749957513435789 0.31247541725763722 
1.0000000000000000 0.31250000000000000 0.0000000000000000 -3.4509789681182828e-07 -2.5763454853347763e-05 0.096948826389412310 0.0000000000000000 -6.7810544131477947e-08 1.0000000000000000 0.31250000000000000 0.99999965490210319 0.31247423654514667 
0.062500000000000000 0.37500000000000000 0.0000000000000000 -1.0370592657912719e-08 -1.2049688037644804e-06 0.38979354587647336 -8.6343294401439660e-08 2.6315654435443939e-07 0.062500000000000000 0.37500000000000000 0.062499989629407345 0.37499879503119621 
0.0000000000000000 0.37500000000000000 0.0000000000000000 0.0000000000000000 0.0000000000000000 0.32782884714839072 0.0000000000000000 2.7683078331587283e-07 0.0000000000000000 0.37500000000000000 0.0000000000000000 0.37500000000000000 
0.12500000000000000 0.37500000000000000 0.0000000000000000 -1.1778776895858807e-08 -2.6721977290851646e-06 0.41245092780165454 1.0664726707561387e-10 2.4015109549341759e-07 0.12500000000000000 0.37500000000000000 0.12499998822122312 0.37499732780227091 
0.18750000000000000 0.37500000000000000 0.0000000000000000 -1.6394215021248639e-08 -4.3387219504727560e-06 0.41135077839022699 1.4906416193372951e-08 2.0448405326539276e-07 0.18750000000000000 0.37500000000000000 0.18749998360578499 0.37499566127804945 
0.25000000000000000 0.37500000000000000 0.0000000000000000 -2.7525568731924183e-08 -6.1394668551248874e-06 0.39525618376699573 3.5414153388521580e-08 1.6415672503255281e-07 0.25000000000000000 0.37500000000000000 0.24999997247443126 0.37499386053314487 
0.31250000000000000 0.37500000000000000 0.0000000000000000 -4.1672346653282759e-08 -8.0163940112802938e-06 0.37024694994227358 4.3811195112282304e-08 1.2297136849694190e-07 0.31250000000000000 0.37500000000000000 0.31249995832765337 0.37499198360598873 
0.37500000000000000 0.37500000000000000 0.0000000000000000 -5.1438863971620960e-08 -9.9219148757883629e-06 0.34157375151209596 4.5925707474224630e-08 8.5959254231908294e-08 0.37500000000000000 0.37500000000000000 0.37499994856113611 0.37499007808512413 
0.43750000000000000 0.37500000000000000 0.0000000000000000 -4.8856237992802715e-08 -1.1819864338920879e-05 0.31331512513731452 4.2802526943998543e-08 5.5515684329766831e-08 0.43750000000000000 0.37500000000000000 0.43749995114376200 0.37498818013566110 
0.50000000000000000 0.37500000000000000 0.0000000000000000 -2.8260353947433936e-08 -1.3684455394347071e-05 0.28760277670626216 3.8065809932203970e-08 3.0962426972077893e-08 0.50000000000000000 0.37500000000000000 0.49999997173964600 0.37498631554460565 
0.56250000000000000 0.37500000000000000 0.0000000000000000 1.2733759070425010e-08 -1.5497607784693282e-05 0.26492200405962224 3.3402470717448931e-08 1.0518333516404003e-08 0.56250000000000000 0.37500000000000000 0.56250001273375905 0.37498450239221531 
0.62500000000000000 0.37500000000000000 0.0000000000000000 7.4310212762548885e-08 -1.7245888483671335e-05 0.24498618800364325 2.9503989764158364e-08 -7.0215455763834706e-09 0.62500000000000000 0.37500000000000000 0.62500007431021276 0.37498275411151633 
0.68750000000000000 0.37500000000000000 0.0000000000000000 1.5538401204401461e-07 -1.8918709212688588e-05 0.22720832734857180 2.6719335991600855e-08 -2.2432360485589732e-08 0.68750000000000000 0.37500000000000000 0.68750015538401199 0.37498108129078739 
0.75000000000000000 0.37500000000000000 0.0000000000000000 2.5404992521784430e-07 -2.0507229191743223e-05 0.21080337954818240 2.5203042915533254e-08 -3.6266955659008460e-08 0.75000000000000000 0.37500000000000000 0.75000025404992521 0.37497949277080828 
0.81250000000000000 0.37500000000000000 0.0000000000000000 3.6755530685155209e-07 -2.2003486580130364e-05 0.19475992343907508 2.6142711946039570e-08 -4.8814259448900578e-08 0.81250000000000000 0.37500000000000000 0.81250036755530697 0.37497799651341984 
0.87500000000000000 0.37500000000000000 0.0000000000000000 4.9182300358421790e-07 -2.3399455834274024e-05 0.17789876174234931 2.6375861309675887e-08 -6.0538621026163695e-08 0.87500000000000000 0.37500000000000000 0.87500049182300355 0.37497660054416571 