# For a description of the Tecplot format see the Tecplot User's guide.
#
Variables=x,y,z,s_u,s_v,s_p,x,y,ref_u,ref_v,u,v
Zone f=fepoint, n=289, e=512, et=quadrilateral, c=black
0.00000 0.00000 0.00000 0.0000000000000000 0.0000000000000000 5.3011994816756367 0.0000000000000000 0.0000000000000000 0.0000000000000000 0.0000000000000000 0.0000000000000000 0.0000000000000000 
0.062500000000000000 0.0000000000000000 0.0000000000000000 -6.2173292586799650e-07 -1.9873845693061550e-06 3.0018957916398503 3.5443182677299255e-06 0.0000000000000000 0.062500000000000000 0.0000000000000000 0.062499378267074135 -1.9873845693061550e-06 
0.062500000000000000 0.062500000000000000 0.0000000000000000 -1.9579917042534594e-08 -1.4367979309483280e-06 1.8731113778265673 1.1530803251004267e-06 1.2289469475250320e-06 0.062500000000000000 0.062500000000000000 0.062499980420082958 0.062498563202069042 
0.0000000000000000 0.062500000000000000 0.0000000000000000 3.4227754740563915e-26 0.0000000000000000 0.74807182968285657 -5.2165310436552568e-22 1.8654313136387490e-06 0.0000000000000000 0.062500000000000000 3.4227754740563915e-26 0.062500000000000000 
0.12500000000000000 0.0000000000000000 0.0000000000000000 -1.1394913265796913e-06 -3.7318448673896481e-06 2.5661652459681821 3.1530130253255739e-06 0.0000000000000000 0.12500000000000000 0.0000000000000000 0.12499886050867343 -3.7318448673896481e-06 
0.12500000000000000 0.062500000000000000 0.0000000000000000 -4.9556740221095491e-07 -3.2472783798715396e-06 0.23237934904216750 -1.1087954221042407e-06 -4.1715017025062088e-07 0.12500000000000000 0.062500000000000000 0.12499950443259779 0.062496752721620134 
0.18750000000000000 0.0000000000000000 0.0000000000000000 -1.5714418891625078e-06 -5.3321801505999659e-06 2.1699913400154203 2.6125451793676124e-06 0.0000000000000000 0.18750000000000000 0.0000000000000000 0.18749842855811083 -5.3321801505999659e-06 
0.18750000000000000 0.062500000000000000 0.0000000000000000 -9.2389735202992693e-07 -4.9321843696143093e-06 0.18774541776789486 -6.4970884529180582e-07 4.6345263939111428e-08 0.18750000000000000 0.062500000000000000 0.18749907610264796 0.062495067815630391 
0.25000000000000000 0.0000000000000000 0.0000000000000000 -1.9279443059614627e-06 -6.8127823598198333e-06 1.8265315293022850 2.3225565559020745e-06 0.0000000000000000 0.25000000000000000 0.0000000000000000 0.24999807205569405 -6.8127823598198333e-06 
0.25000000000000000 0.062500000000000000 0.0000000000000000 -1.2755801510980335e-06 -6.4844995708566267e-06 0.13592102474993503 -6.4560472119255429e-07 -5.1253041365073145e-08 0.25000000000000000 0.062500000000000000 0.24999872441984891 0.062493515500429142 
0.31250000000000000 0.0000000000000000 0.0000000000000000 -2.2167544729221619e-06 -8.1999444392108129e-06 1.5242548635814532 2.0604409297040012e-06 0.0000000000000000 0.31250000000000000 0.0000000000000000 0.31249778324552707 -8.1999444392108129e-06 
0.31250000000000000 0.062500000000000000 0.0000000000000000 -1.5623461142553807e-06 -7.9352918235386509e-06 0.095206691802637897 -5.6715730509155322e-07 -2.4863118842904817e-08 0.31250000000000000 0.062500000000000000 0.31249843765388574 0.062492064708176469 
0.37500000000000000 0.0000000000000000 0.0000000000000000 -2.4462552140547003e-06 -9.5074243820934120e-06 1.2563243060488551 1.8468601736062949e-06 0.0000000000000000 0.37500000000000000 0.0000000000000000 0.37499755374478588 -9.5074243820934120e-06 
0.37500000000000000 0.062500000000000000 0.0000000000000000 -1.7917164871857790e-06 -9.2983988776069286e-06 0.060106001581390643 -5.2319751487323380e-07 -3.2623503667995995e-08 0.37500000000000000 0.062500000000000000 0.37499820828351282 0.062490701601122391 
0.43750000000000000 0.0000000000000000 0.0000000000000000 -2.6240179103755424e-06 -1.0744269670813304e-05 1.0186860729275755 1.6564245424210982e-06 0.0000000000000000 0.43750000000000000 0.0000000000000000 0.43749737598208965 -1.0744269670813304e-05 
0.43750000000000000 0.062500000000000000 0.0000000000000000 -1.9709704898574339e-06 -1.0583516035458564e-05 0.031501914534790711 -4.7870076059995372e-07 -3.4914400260126266e-08 0.43750000000000000 0.062500000000000000 0.43749802902951013 0.062489416483964548 
0.50000000000000000 0.0000000000000000 0.0000000000000000 -2.7573833773590228e-06 -1.1915888865908329e-05 0.80865049214434992 1.4820205639623325e-06 0.0000000000000000 0.50000000000000000 0.0000000000000000 0.49999724261662265 -1.1915888865908329e-05 
0.50000000000000000 0.062500000000000000 0.0000000000000000 -2.1069137279985435e-06 -1.1796352670291433e-05 0.0087679272675228823 -4.3870337488112289e-07 -3.9481110646427180e-08 0.50000000000000000 0.062500000000000000 0.49999789308627202 0.062488203647329710 
0.56250000000000000 0.0000000000000000 0.0000000000000000 -2.8534367745298105e-06 -1.3025728404077357e-05 0.62457172811671491 1.3165744046644947e-06 0.0000000000000000 0.56250000000000000 0.0000000000000000 0.56249714656322547 -1.3025728404077357e-05 
0.56250000000000000 0.062500000000000000 0.0000000000000000 -2.2061036209067796e-06 -1.2940604750451373e-05 -0.0083367370791096462 -3.9942713683527916e-07 -4.3303735468791708e-08 0.56250000000000000 0.062500000000000000 0.56249779389637922 0.062487059395249546 
0.62500000000000000 0.0000000000000000 0.0000000000000000 -2.9190437131856209e-06 -1.4076078175932914e-05 0.46542963268849363 1.1560278148910383e-06 0.0000000000000000 0.62500000000000000 0.0000000000000000 0.62499708095628681 -1.4076078175932914e-05 
0.62500000000000000 0.062500000000000000 0.0000000000000000 -2.2748947196759340e-06 -1.4018786475971393e-05 -0.020100368752442626 -3.6024460841702941e-07 -4.6643377186381488e-08 0.62500000000000000 0.062500000000000000 0.62499772510528029 0.062485981213524021 
0.68750000000000000 0.0000000000000000 0.0000000000000000 -2.9607813828261279e-06 -1.5068574670126756e-05 0.33061171917285859 9.9712587343840614e-07 0.0000000000000000 0.68750000000000000 0.0000000000000000 0.68749703921861716 -1.5068574670126756e-05 
0.68750000000000000 0.062500000000000000 0.0000000000000000 -2.3194417530658347e-06 -1.5032826056494769e-05 -0.026771779569095971 -3.2039810864154456e-07 -4.8756496018520160e-08 0.68750000000000000 0.062500000000000000 0.68749768055824678 0.062484967173943508 
0.75000000000000000 0.0000000000000000 0.0000000000000000 -2.9848252064600850e-06 -1.6004419684417218e-05 0.21978756622883575 8.3830067426387754e-07 0.0000000000000000 0.75000000000000000 0.0000000000000000 0.74999701517479356 -1.6004419684417218e-05 
0.75000000000000000 0.062500000000000000 0.0000000000000000 -2.3456233536847727e-06 -1.5984315391507874e-05 -0.028614991206719547 -2.7970380512530003e-07 -5.1681885873272498e-08 0.75000000000000000 0.062500000000000000 0.74999765437664634 0.062484015684608492 
0.81250000000000000 0.0000000000000000 0.0000000000000000 -2.9966910415139826e-06 -1.6884297419831398e-05 0.13273168324134946 6.7501233657588686e-07 0.0000000000000000 0.81250000000000000 0.0000000000000000 0.81249700330895847 -1.6884297419831398e-05 
0.81250000000000000 0.062500000000000000 0.0000000000000000 -2.3589129559369206e-06 -1.6874643580704379e-05 -0.025832686733815568 -2.3807557703957009e-07 -4.9048238956345845e-08 0.81250000000000000 0.062500000000000000 0.81249764108704403 0.062483125356419304 
0.87500000000000000 0.0000000000000000 0.0000000000000000 -3.0011663767267803e-06 -1.7708395966678053e-05 0.069787752324936281 5.1325073951160467e-07 0.0000000000000000 0.87500000000000000 0.0000000000000000 0.87499699883362325 -1.7708395966678053e-05 
0.87500000000000000 0.062500000000000000 0.0000000000000000 -2.3641129606841256e-06 -1.7704577629940280e-05 -0.018828597985844259 -1.9593740563555185e-07 -6.4818926494228428e-08 0.87500000000000000 0.062500000000000000 0.87499763588703938 0.062482295422370056 
0.93750000000000000 0.0000000000000000 0.0000000000000000 -3.0013903625194922e-06 -1.8474993955803964e-05 0.028338674267691238 3.2018474890219291e-07 0.0000000000000000 0.93750000000000000 0.0000000000000000 0.93749699860963753 -1.8474993955803964e-05 
0.93750000000000000 0.062500000000000000 0.0000000000000000 -2.3652605177820700e-06 -1.8474511173877508e-05 -0.0093462708728511094 -1.5332967621859228e-07 -2.4913769545963417e-08 0.93750000000000000 0.062500000000000000 0.93749763473948222 0.062481525488826122 
1.0000000000000000 0.0000000000000000 0.0000000000000000 -3.0000155629034652e-06 -1.9188580725441727e-05 0.052884250941344149 0.0000000000000000 0.0000000000000000 1.0000000000000000 0.0000000000000000 0.99999699998443714 -1.9188580725441727e-05 
1.0000000000000000 0.062500000000000000 0.0000000000000000 -2.3653214718642020e-06 -1.9187224801493509e-05 0.012066565584422711 0.0000000000000000 -1.5937870009549424e-07 1.0000000000000000 0.062500000000000000 0.99999763467852809 0.062480812775198506 
0.062500000000000000 0.12500000000000000 0.0000000000000000 5.5223634064008547e-10 -1.4060552637669129e-06 0.38911628686699667 -3.7441917386541796e-07 -8.9201020599759883e-07 0.062500000000000000 0.12500000000000000 0.062500000552236354 0.12499859394473624 
0.0000000000000000 0.12500000000000000 0.0000000000000000 -1.2015512121885957e-25 0.0000000000000000 0.52929169941275200 1.2665684412499223e-21 2.6580790612269567e-06 0.0000000000000000 0.12500000000000000 -1.2015512121885957e-25 0.12500000000000000 
0.12500000000000000 0.12500000000000000 0.0000000000000000 -1.7059430036907312e-08 -2.8177980384431679e-06 1.5919944609273589 1.4123821071713666e-06 1.3019482111146629e-06 0.12500000000000000 0.12500000000000000 0.12499998294056995 0.12499718220196156 
0.18750000000000000 0.12500000000000000 0.0000000000000000 -3.9274492352252639e-07 -4.5575038831454887e-06 0.27507804408855580 3.1265821259303886e-08 -4.1552873325908109e-07 0.18750000000000000 0.12500000000000000 0.18749960725507650 0.12499544249611684 
0.25000000000000000 0.12500000000000000 0.0000000000000000 -7.1747870125459157e-07 -6.1783754722120564e-06 0.25712021949159986 2.8731411201783998e-07 -2.0894678171045819e-08 0.25000000000000000 0.12500000000000000 0.24999928252129874 0.12499382162452778 
0.31250000000000000 0.12500000000000000 0.0000000000000000 -9.8206838477603355e-07 -7.6873223544989097e-06 0.20674514355383597 1.9098494677282767e-07 -8.8729348723487254e-08 0.31250000000000000 0.12500000000000000 0.31249901793161522 0.12499231267764550 
0.37500000000000000 0.12500000000000000 0.0000000000000000 -1.1944159335408875e-06 -9.1020006788406713e-06 0.16743863057294148 1.9262899086941935e-07 -6.5022727208225039e-08 0.37500000000000000 0.12500000000000000 0.37499880558406645 0.12499089799932116 
0.43750000000000000 0.12500000000000000 0.0000000000000000 -1.3605963067641079e-06 -1.0432088467943115e-05 0.13248444513860189 1.7326308230937226e-07 -6.6068682849924988e-08 0.43750000000000000 0.12500000000000000 0.43749863940369321 0.12498956791153205 
0.50000000000000000 0.12500000000000000 0.0000000000000000 -1.4865996801394095e-06 -1.1683655218734281e-05 0.10263281173949264 1.6099824143102132e-07 -6.3190401337348458e-08 0.50000000000000000 0.12500000000000000 0.49999851340031981 0.12498831634478126 
0.56250000000000000 0.12500000000000000 0.0000000000000000 -1.5781778055789742e-06 -1.2860558805043275e-05 0.077365045608148497 1.4845224669183248e-07 -6.2084885635412707e-08 0.56250000000000000 0.12500000000000000 0.56249842182219456 0.12498713944119495 
0.62500000000000000 0.12500000000000000 0.0000000000000000 -1.6409832124942890e-06 -1.3965458526449968e-05 0.056518457935243092 1.3700057159871682e-07 -6.0764228359184580e-08 0.62500000000000000 0.12500000000000000 0.62499835901678746 0.12498603454147354 
0.68750000000000000 0.12500000000000000 0.0000000000000000 -1.6805682136885815e-06 -1.5000446400399708e-05 0.039941929413657817 1.2602595409984111e-07 -5.8901188515698599e-08 0.68750000000000000 0.12500000000000000 0.68749831943178641 0.12498499955359961 
0.75000000000000000 0.12500000000000000 0.0000000000000000 -1.7023485835714181e-06 -1.5967370366475669e-05 0.027531085329921323 1.1548483295501122e-07 -5.8407279036834327e-08 0.75000000000000000 0.12500000000000000 0.74999829765141646 0.12498403262963352 
0.81250000000000000 0.12500000000000000 0.0000000000000000 -1.7114926216896534e-06 -1.6868030205127409e-05 0.019293063648650705 1.0491612060665075e-07 -5.1840273714067129e-08 0.81250000000000000 0.12500000000000000 0.81249828850737826 0.12498313196979487 
0.87500000000000000 0.12500000000000000 0.0000000000000000 -1.7127648256216111e-06 -1.7703824236305323e-05 0.015118261290877011 9.4916155889119256e-08 -6.8529784883699101e-08 0.87500000000000000 0.12500000000000000 0.87499828723517437 0.12498229617576369 
0.93750000000000000 0.12500000000000000 0.0000000000000000 -1.7102729724354854e-06 -1.8476190518534692e-05 0.013761227065190793 8.7030520748155284e-08 -5.0897452670169426e-09 0.93750000000000000 0.12500000000000000 0.93749828972702753 0.12498152380948147 
1.0000000000000000 0.12500000000000000 0.0000000000000000 -1.7065802685009896e-06 -1.9188593980861279e-05 0.048319672314023371 0.0000000000000000 -1.8432668066641843e-07 1.0000000000000000 0.12500000000000000 0.99999829341973145 0.12498081140601913 
0.062500000000000000 0.18750000000000000 0.0000000000000000 5.9851366444332623e-09 -1.4102332173183073e-06 0.36047162288807427 9.9311947767198175e-08 -6.3712782191810782e-07 0.062500000000000000 0.18750000000000000 0.062500005985136650 0.18749858976678269 
0.0000000000000000 0.18750000000000000 0.0000000000000000 1.7795905486691742e-25 0.0000000000000000 0.13466654449893714 -2.5980891101084251e-22 2.4961316297926191e-06 0.0000000000000000 0.18750000000000000 1.7795905486691742e-25 0.18750000000000000 
0.12500000000000000 0.18750000000000000 0.0000000000000000 1.5888513757417349e-08 -2.8071968049504174e-06 0.32348718950595984 -3.0987309875219858e-07 -1.0923847674510605e-08 0.12500000000000000 0.18750000000000000 0.12500001588851375 0.18749719280319502 
0.18750000000000000 0.18750000000000000 0.0000000000000000 1.9746512640504191e-08 -4.2285113008428107e-06 1.2985625115932373 9.2478967937437253e-07 8.8471316889970378e-07 0.18750000000000000 0.18750000000000000 0.18750001974651265 0.18749577148869914 
0.25000000000000000 0.18750000000000000 0.0000000000000000 -2.5903670480097614e-07 -5.9006255368476083e-06 0.24324246275626660 -1.9715947883597841e-07 -3.0234440723146223e-07 0.25000000000000000 0.18750000000000000 0.24999974096329522 0.18749409937446315 
0.31250000000000000 0.18750000000000000 0.0000000000000000 -4.9294841437858947e-07 -7.4634949067277061e-06 0.23550036270387839 3.9977099762606457e-08 -3.9167789088742098e-09 0.31250000000000000 0.18750000000000000 0.31249950705158563 0.18749253650509326 
0.37500000000000000 0.18750000000000000 0.0000000000000000 -6.7934608414299927e-07 -8.9247512949963888e-06 0.18780814402232485 -1.9281993587106664e-08 -6.6752864295097437e-08 0.37500000000000000 0.18750000000000000 0.37499932065391578 0.18749107524870501 
0.43750000000000000 0.18750000000000000 0.0000000000000000 -8.2421786352769039e-07 -1.0295981414794061e-05 0.15259492509763697 -4.3033702342745830e-09 -4.9762143084104166e-08 0.43750000000000000 0.18750000000000000 0.43749917578213643 0.18748970401858520 
0.50000000000000000 0.18750000000000000 0.0000000000000000 -9.3257707505771008e-07 -1.1583216612111547e-05 0.12159346073738105 -8.1345164326165416e-09 -5.3599664067187959e-08 0.50000000000000000 0.18750000000000000 0.49999906742292494 0.18748841678338790 
0.56250000000000000 0.18750000000000000 0.0000000000000000 -1.0094464424340361e-06 -1.2790449793058413e-05 0.095602685084316422 -6.8001948093852737e-09 -5.2983857642355969e-08 0.56250000000000000 0.18750000000000000 0.56249899055355757 0.18748720955020695 
0.62500000000000000 0.18750000000000000 0.0000000000000000 -1.0598140856007644e-06 -1.3920380144667552e-05 0.073890629205249983 -6.2528966476006311e-09 -5.3567547806382107e-08 0.62500000000000000 0.18750000000000000 0.62499894018591451 0.18748607961985533 
0.68750000000000000 0.18750000000000000 0.0000000000000000 -1.0886796314888767e-06 -1.4975154590288226e-05 0.056273185741752364 -4.9009449134693030e-09 -5.3106741496513330e-08 0.68750000000000000 0.18750000000000000 0.68749891132036856 0.18748502484540971 
0.75000000000000000 0.18750000000000000 0.0000000000000000 -1.1010260685280245e-06 -1.5956729882462674e-05 0.042575036293045675 -3.2031384578023059e-09 -5.3969761943639000e-08 0.75000000000000000 0.18750000000000000 0.74999889897393146 0.18748404327011750 
0.81250000000000000 0.18750000000000000 0.0000000000000000 -1.1017471899064165e-06 -1.6867144931106568e-05 0.032965056503940181 -1.1711579593690673e-09 -4.8166396429919874e-08 0.81250000000000000 0.18750000000000000 0.81249889825281019 0.18748313285506890 
0.87500000000000000 0.18750000000000000 0.0000000000000000 -1.0955127548479025e-06 -1.7708179173130790e-05 0.027228050469185843 1.3317680135496587e-09 -6.7344056325744839e-08 0.87500000000000000 0.18750000000000000 0.87499890448724515 0.18748229182082687 
0.93750000000000000 0.18750000000000000 0.0000000000000000 -1.0865606572545122e-06 -1.8482157271232089e-05 0.024083214896988291 2.4877270564399608e-09 4.7538735045189697e-09 0.93750000000000000 0.18750000000000000 0.93749891343934266 0.18748151784272873 
1.0000000000000000 0.18750000000000000 0.0000000000000000 -1.0782257016449280e-06 -1.9192355022116785e-05 0.075656978418000675 0.0000000000000000 -2.3444134947895337e-07 1.0000000000000000 0.18750000000000000 0.99999892177429839 0.18748080764497788 
0.062500000000000000 0.25000000000000000 0.0000000000000000 1.0198673000771921e-08 -1.4260303330797795e-06 0.27173321899809649 -4.6439808107145085e-08 -6.9385543012191646e-07 0.062500000000000000 0.25000000000000000 0.062500010198673003 0.24999857396966693 
0.0000000000000000 0.25000000000000000 0.0000000000000000 -1.4965395242399977e-24 0.0000000000000000 -0.22839691176320764 1.1691400996293677e-21 2.2612033152029681e-06 0.0000000000000000 0.25000000000000000 -1.4965395242399977e-24 0.25000000000000000 
0.12500000000000000 0.25000000000000000 0.0000000000000000 3.5851968561909493e-08 -2.8253002077000582e-06 0.30967036642985452 6.8159011719879136e-08 3.0361681527808923e-07 0.12500000000000000 0.25000000000000000 0.12500003585196853 0.24999717469979230 
0.18750000000000000 0.25000000000000000 0.0000000000000000 6.6007119414961942e-08 -4.2428318360334224e-06 0.28907887020730921 -2.3969276811521880e-07 -2.1482298174244733e-07 0.18750000000000000 0.25000000000000000 0.18750006600711941 0.24999575716816394 
0.25000000000000000 0.25000000000000000 0.0000000000000000 9.8031394803267866e-08 -5.6650729041284137e-06 1.0533559364882854 7.9179767012093015e-07 7.4967746021154529e-07 0.25000000000000000 0.25000000000000000 0.25000009803139478 0.24999433492709588 
0.31250000000000000 0.25000000000000000 0.0000000000000000 -9.1932684176757352e-08 -7.2722164912302111e-06 0.21693898580617166 -1.1388981297558310e-07 -2.6656763667687767e-07 0.31250000000000000 0.25000000000000000 0.31249990806731581 0.24999272778350878 
0.37500000000000000 0.25000000000000000 0.0000000000000000 -2.4333987482012009e-07 -8.7755386240060228e-06 0.21777126207676142 8.3850192251889409e-08 -4.6067371068450851e-09 0.37500000000000000 0.25000000000000000 0.37499975666012514 0.24999122446137600 
0.43750000000000000 0.25000000000000000 0.0000000000000000 -3.5823709511550243e-07 -1.0183352619751859e-05 0.17573349652352363 2.7429880383018557e-08 -6.3491586492830428e-08 0.43750000000000000 0.25000000000000000 0.43749964176290490 0.24998981664738021 
0.50000000000000000 0.25000000000000000 0.0000000000000000 -4.4098048807908767e-07 -1.1502686445713417e-05 0.14580601588044603 3.7612951970226367e-08 -4.9583906243311417e-08 0.50000000000000000 0.25000000000000000 0.49999955901951193 0.24998849731355430 
0.56250000000000000 0.25000000000000000 0.0000000000000000 -4.9576197918330367e-07 -1.2737377068772185e-05 0.11951380965739777 3.1469980497436870e-08 -5.3816759516138842e-08 0.56250000000000000 0.25000000000000000 0.56249950423802086 0.24998726262293122 
0.62500000000000000 0.25000000000000000 0.0000000000000000 -5.2688985125046512e-07 -1.3890080765739876e-05 0.097597646076194991 3.0187150309381986e-08 -5.3663755503347398e-08 0.62500000000000000 0.25000000000000000 0.62499947311014870 0.24998610991923423 
0.68750000000000000 0.25000000000000000 0.0000000000000000 -5.3880157645593447e-07 -1.4962877943105627e-05 0.079365212826874809 2.8342025717548289e-08 -5.3865974487763809e-08 0.68750000000000000 0.25000000000000000 0.68749946119842342 0.24998503712205689 
0.75000000000000000 0.25000000000000000 0.0000000000000000 -5.3604579357728104e-07 -1.5957701767436940e-05 0.064625368345234621 2.7092850382401618e-08 -5.4890702722241181e-08 0.75000000000000000 0.25000000000000000 0.74999946395420647 0.24998404229823254 
0.81250000000000000 0.25000000000000000 0.0000000000000000 -5.2322871495004793e-07 -1.6876655957808852e-05 0.053566583423815262 2.6224661411185437e-08 -4.9124067656306137e-08 0.81250000000000000 0.25000000000000000 0.81249947677128509 0.24998312334404219 
0.87500000000000000 0.25000000000000000 0.0000000000000000 -5.0491605646674452e-07 -1.7721724252704845e-05 0.045888896349685515 2.5229923409027423e-08 -6.9484229467966445e-08 0.87500000000000000 0.25000000000000000 0.87499949508394348 0.24998227827574729 
0.93750000000000000 0.25000000000000000 0.0000000000000000 -4.8545222913973924e-07 -1.8495782502819121e-05 0.040543466134549629 2.5115601246779724e-08 1.2367533973242124e-08 0.93750000000000000 0.25000000000000000 0.93749951454777081 0.24998150421749718 
1.0000000000000000 0.25000000000000000 0.0000000000000000 -4.6843399156181005e-07 -1.9201987372052366e-05 0.11406449755994032 0.0000000000000000 -2.7648317368408336e-07 1.0000000000000000 0.25000000000000000 0.99999953156600840 0.24998079801262796 
0.062500000000000000 0.31250000000000000 0.0000000000000000 1.2884114104033814e-08 -1.4511687687522535e-06 0.21471475687468414 -4.2181741252880304e-08 -6.3403581447914366e-07 0.062500000000000000 0.31250000000000000 0.062500012884114109 0.31249854883123124 
0.0000000000000000 0.31250000000000000 0.0000000000000000 8.7553593182007089e-25 0.0000000000000000 -0.55729268831220724 -1.0392356441212581e-21 2.1718998073587758e-06 0.0000000000000000 0.31250000000000000 8.7553593182007089e-25 0.31250000000000000 
0.12500000000000000 0.31250000000000000 0.0000000000000000 5.2555775896837487e-08 -2.8644704033699227e-06 0.23379351928725980 -2.9081535631747985e-08 1.9458934975326179e-07 0.12500000000000000 0.31250000000000000 0.12500005255577593 0.31249713552959663 
0.18750000000000000 0.31250000000000000 0.0000000000000000 1.0704669622865216e-07 -4.2870531917321153e-06 0.29547746725138391 5.8037358686613841e-08 2.8113176169880347e-08 0.18750000000000000 0.31250000000000000 0.18750010704669620 0.31249571294680828 
0.25000000000000000 0.31250000000000000 0.0000000000000000 1.6689662947860950e-07 -5.7112568409056298e-06 0.26176989158616198 -2.1044048119796324e-07 -1.3076202499434709e-07 0.25000000000000000 0.31250000000000000 0.25000016689662946 0.31249428874315915 
0.31250000000000000 0.31250000000000000 0.0000000000000000 2.3233385532977658e-07 -7.1218139311847777e-06 0.86484026996169405 6.1518615617234349e-07 5.7652469096991180e-07 0.31250000000000000 0.31250000000000000 0.31250023233385532 0.31249287818606880 
0.37500000000000000 0.31250000000000000 0.0000000000000000 1.2291155990974856e-07 -8.6624656483622976e-06 0.20245389277088380 -1.0812194157750019e-07 -2.2122466726712738e-07 0.37500000000000000 0.31250000000000000 0.37500012291155999 0.31249133753435165 
0.43750000000000000 0.31250000000000000 0.0000000000000000 4.5533317536991711e-08 -1.0102091853438349e-05 0.20891283510661060 5.9072897167524329e-08 -8.0912903543386651e-09 0.43750000000000000 0.31250000000000000 0.43750004553331756 0.31248989790814657 
0.50000000000000000 0.31250000000000000 0.0000000000000000 -4.7038091559818541e-09 -1.1449294362607345e-05 0.17228350474111073 1.2216851460179009e-08 -5.9872209145723904e-08 0.50000000000000000 0.31250000000000000 0.49999999529619082 0.31248855070563741 
0.56250000000000000 0.31250000000000000 0.0000000000000000 -3.0970594119242383e-08 -1.2708029261543776e-05 0.14699808573841847 2.1817899747022673e-08 -4.8890429488905112e-08 0.56250000000000000 0.31250000000000000 0.56249996902940591 0.31248729197073843 
0.62500000000000000 0.31250000000000000 0.0000000000000000 -3.6897521222724852e-08 -1.3880731935463786e-05 0.12465339401930657 1.7509324477066474e-08 -5.3196845307882775e-08 0.62500000000000000 0.31250000000000000 0.62499996310247863 0.31248611926806452 
0.68750000000000000 0.31250000000000000 0.0000000000000000 -2.6312823507210236e-08 -1.4969287280352934e-05 0.10604409178810814 1.7533323166241753e-08 -5.2912756168840673e-08 0.68750000000000000 0.31250000000000000 0.68749997368717652 0.31248503071271966 
0.75000000000000000 0.31250000000000000 0.0000000000000000 -3.3105669659992736e-09 -1.5975471608835289e-05 0.090480250499644629 1.6908481669707807e-08 -5.4439205602216826e-08 0.75000000000000000 0.31250000000000000 0.74999999668943307 0.31248402452839125 
0.81250000000000000 0.31250000000000000 0.0000000000000000 2.7816288255089668e-08 -1.6901290051539742e-05 0.078215904808888778 1.7197091911277280e-08 -4.9224307600036962e-08 0.81250000000000000 0.31250000000000000 0.81250002781628827 0.31248309870994845 
0.87500000000000000 0.31250000000000000 0.0000000000000000 6.2640616784590110e-08 -1.7748751936349466e-05 0.068699759353047105 1.7039486431880888e-08 -6.8867181513902313e-08 0.87500000000000000 0.31250000000000000 0.87500006264061680 0.31248225124806367 
0.93750000000000000 0.31250000000000000 0.0000000000000000 9.6761489660749877e-08 -1.8520980382254724e-05 0.061211703507575564 1.7548406092663803e-08 1.3170568542868758e-08 0.93750000000000000 0.31250000000000000 0.93750009676148960 0.31248147901961776 
1.0000000000000000 0.31250000000000000 0.0000000000000000 1.2620328815261831e-07 -1.9220870478133729e-05 0.15992653704102888 0.0000000000000000 -2.9055537976036887e-07 1.0000000000000000 0.31250000000000000 1.0000001262032880 0.31248077912952188 
0.062500000000000000 0.37500000000000000 0.0000000000000000 1.6009188507581269e-08 -1.4841729004869786e-06 0.16771369352490462 -6.9155097838086963e-08 -6.4505975916289905e-07 0.062500000000000000 0.37500000000000000 0.062500016009188517 0.37499851582709948 
0.0000000000000000 0.37500000000000000 0.0000000000000000 -8.1849856155223244e-25 0.0000000000000000 -0.87806776302554590 3.2074632896085003e-32 2.2263371922837209e-06 0.0000000000000000 0.37500000000000000 -8.1849856155223244e-25 0.37500000000000000 
0.12500000000000000 0.37500000000000000 0.0000000000000000 6.8295670293355897e-08 -2.9217879488522812e-06 0.18187483853511166 -1.4057292779541336e-08 1.9809506075607390e-07 0.12500000000000000 0.37500000000000000 0.12500006829567026 0.37499707821205114 
0.18750000000000000 0.37500000000000000 0.0000000000000000 1.4426270050731606e-07 -4.3589513151588185e-06 0.23456746927437408 -2.9192133166198952e-08 -4.6582624754233282e-08 0.18750000000000000 0.37500000000000000 0.18750014426270048 0.37499564104868482 
0.25000000000000000 0.37500000000000000 0.0000000000000000 2.3401131218582419e-07 -5.7879139134294043e-06 0.27895921685893088 5.0274449753145683e-08 7.7423221267878284e-08 0.25000000000000000 0.37500000000000000 0.25000023401131216 0.37499421208608658 
0.31250000000000000 0.37500000000000000 0.0000000000000000 3.2836485228680920e-07 -7.2034109064354011e-06 0.24495577783412237 -1.7223332219881060e-07 -1.3240873585419635e-07 0.31250000000000000 0.37500000000000000 0.31250032836485225 0.37499279658909357 
0.37500000000000000 0.37500000000000000 0.0000000000000000 4.2979981781525939e-07 -8.5889962092719437e-06 0.71904042210274532 4.9138022819166050e-07 4.5296420559092338e-07 0.37500000000000000 0.37500000000000000 0.37500042979981779 0.37499141100379069 
0.43750000000000000 0.37500000000000000 0.0000000000000000 3.9303260127068794e-07 -1.0059042254083465e-05 0.19677820244857269 -8.6705080298699889e-08 -1.8973217300672818e-07 0.43750000000000000 0.37500000000000000 0.43750039303260130 0.37498994095774590 
0.50000000000000000 0.37500000000000000 0.0000000000000000 3.8188784366178599e-07 -1.1429324864085153e-05 0.20651555681417810 5.3233113087093837e-08 -1.2514787002535887e-08 0.50000000000000000 0.37500000000000000 0.50000038188784368 0.37498857067513591 
0.56250000000000000 0.37500000000000000 0.0000000000000000 3.8982320260133082e-07 -1.2708260700576587e-05 0.17524635442339451 1.3203437324617899e-08 -5.8383118647776267e-08 0.56250000000000000 0.37500000000000000 0.56250038982320261 0.37498729173929940 
0.62500000000000000 0.37500000000000000 0.0000000000000000 4.1447700681517814e-07 -1.3897778303213406e-05 0.15409559368813053 2.1569547033295874e-08 -4.9462240286683370e-08 0.62500000000000000 0.37500000000000000 0.62500041447700683 0.37498610222169676 
0.68750000000000000 0.37500000000000000 0.0000000000000000 4.5256299898226937e-07 -1.4999474077924808e-05 0.13521716627041094 1.8095311536535647e-08 -5.3296098222206952e-08 0.68750000000000000 0.37500000000000000 0.68750045256299896 0.37498500052592210 
0.75000000000000000 0.37500000000000000 0.0000000000000000 5.0052301116592968e-07 -1.6014806549983041e-05 0.11931324116333834 1.8260519003297697e-08 -5.4171387612584071e-08 0.75000000000000000 0.37500000000000000 0.75000050052301115 0.37498398519345000 
0.81250000000000000 0.37500000000000000 0.0000000000000000 5.5441514701913970e-07 -1.6945529280991923e-05 0.10625337196936131 1.8511351507133964e-08 -5.0197542510461557e-08 0.81250000000000000 0.37500000000000000 0.81250055441514701 0.37498305447071895 
0.87500000000000000 0.37500000000000000 0.0000000000000000 6.1000473884200519e-07 -1.7793504580544794e-05 0.095287969889857507 1.8215601277541318e-08 -6.8031326301735463e-08 0.87500000000000000 0.37500000000000000 0.87500061000473883 0.37498220649541952 