# For a description of the Tecplot format see the Tecplot User's guide.
#
Variables=x,y,z,s_u,s_v,s_p,x,y,ref_u,ref_v,u,v
Zone f=fepoint, n=289, e=512, et=quadrilateral, c=black
0.00000 0.00000 0.00000 0.0000000000000000 0.0000000000000000 5.3190543861562212 0.0000000000000000 0.0000000000000000 0.0000000000000000 0.0000000000000000 0.0000000000000000 0.0000000000000000 
0.062500000000000000 0.0000000000000000 0.0000000000000000 -6.4602730523720267e-07 -2.0134974140964546e-06 2.9281803567884412 3.5734412587601700e-06 0.0000000000000000 0.062500000000000000 0.0000000000000000 0.062499353972694766 -2.0134974140964546e-06 
0.062500000000000000 0.062500000000000000 0.0000000000000000 -1.8857131724806735e-08 -1.4354303423772784e-06 1.8957591285173150 1.2587141284334430e-06 1.3165194939649455e-06 0.062500000000000000 0.062500000000000000 0.062499981142868276 0.062498564569657626 
0.0000000000000000 0.062500000000000000 0.0000000000000000 3.2061840423083881e-26 0.0000000000000000 0.88319235711505806 1.3041327610277520e-22 2.0841075936867472e-06 0.0000000000000000 0.062500000000000000 3.2061840423083881e-26 0.062500000000000000 
0.12500000000000000 0.0000000000000000 0.0000000000000000 -1.1893782781155821e-06 -3.7742925988372604e-06 2.4908201889489816 3.0873452557206844e-06 0.0000000000000000 0.12500000000000000 0.0000000000000000 0.12499881062172187 -3.7742925988372604e-06 
0.12500000000000000 0.062500000000000000 0.0000000000000000 -5.1862166877678505e-07 -3.2674162700985055e-06 0.26914833588393233 -1.1260386637124151e-06 -4.5599975230961008e-07 0.12500000000000000 0.062500000000000000 0.12499948137833124 0.062496732583729904 
0.18750000000000000 0.0000000000000000 0.0000000000000000 -1.6426091309024211e-06 -5.3811410786931899e-06 2.1002268635422454 2.5201653179713591e-06 0.0000000000000000 0.18750000000000000 0.0000000000000000 0.18749835739086909 -5.3811410786931899e-06 
0.18750000000000000 0.062500000000000000 0.0000000000000000 -9.6586363279216124e-07 -4.9624483747495145e-06 0.22030930359734255 -6.1573608857349851e-07 5.9470505099561233e-08 0.18750000000000000 0.062500000000000000 0.18749903413636718 0.062495037551625242 
0.25000000000000000 0.0000000000000000 0.0000000000000000 -2.0168089209526868e-06 -6.8670200695475462e-06 1.7644208259107836 2.2317432011561917e-06 0.0000000000000000 0.25000000000000000 0.0000000000000000 0.24999798319107905 -6.8670200695475462e-06 
0.25000000000000000 0.062500000000000000 0.0000000000000000 -1.3335414966164280e-06 -6.5230650284935789e-06 0.16485962950963406 -6.1487340906380850e-07 -4.8562391868926079e-08 0.25000000000000000 0.062500000000000000 0.24999866645850341 0.062493476934971516 
0.31250000000000000 0.0000000000000000 0.0000000000000000 -2.3203544327039963e-06 -8.2605418392164989e-06 1.4700246760237439 1.9716495597678076e-06 0.0000000000000000 0.31250000000000000 0.0000000000000000 0.31249767964556729 -8.2605418392164989e-06 
0.31250000000000000 0.062500000000000000 0.0000000000000000 -1.6338112793387955e-06 -7.9828113713655793e-06 0.12055837097178961 -5.3642390695629518e-07 -1.9113703344361913e-08 0.31250000000000000 0.062500000000000000 0.31249836618872068 0.062492017188628630 
0.37500000000000000 0.0000000000000000 0.0000000000000000 -2.5619652300132934e-06 -9.5765539270323772e-06 1.2097229872375608 1.7640395523029368e-06 0.0000000000000000 0.37500000000000000 0.0000000000000000 0.37499743803476998 -9.5765539270323772e-06 
0.37500000000000000 0.062500000000000000 0.0000000000000000 -1.8745014013603978e-06 -9.3567864318964077e-06 0.082245184998514922 -4.9396249647690926e-07 -2.8196484459765833e-08 0.37500000000000000 0.062500000000000000 0.37499812549859862 0.062490643213568113 
0.43750000000000000 0.0000000000000000 0.0000000000000000 -2.7494679129917974e-06 -1.0824227969659905e-05 0.97917223544108711 1.5800592763828949e-06 0.0000000000000000 0.43750000000000000 0.0000000000000000 0.43749725053208693 -1.0824227969659905e-05 
0.43750000000000000 0.062500000000000000 0.0000000000000000 -2.0630659153524414e-06 -1.0654868887240906e-05 0.050662187443717942 -4.5133992578362571e-07 -3.1411562085494784e-08 0.43750000000000000 0.062500000000000000 0.43749793693408462 0.062489345131112761 
0.50000000000000000 0.0000000000000000 0.0000000000000000 -2.8904215067721457e-06 -1.2008798436246253e-05 0.77562397010100914 1.4122462234739557e-06 0.0000000000000000 0.50000000000000000 0.0000000000000000 0.49999710957849325 -1.2008798436246253e-05 
0.50000000000000000 0.062500000000000000 0.0000000000000000 -2.2064623852544095e-06 -1.1882613435319252e-05 0.025157974093711271 -4.1333748527029108e-07 -3.7064077647191222e-08 0.50000000000000000 0.062500000000000000 0.49999779353761475 0.062488117386564679 
0.56250000000000000 0.0000000000000000 0.0000000000000000 -2.9921303676253956e-06 -1.3133427286816002e-05 0.59743922718037190 1.2531208799361484e-06 0.0000000000000000 0.56250000000000000 0.0000000000000000 0.56249700786963241 -1.3133427286816002e-05 
0.56250000000000000 0.062500000000000000 0.0000000000000000 -2.3113899575691264e-06 -1.3043421842815096e-05 0.0054715425987746187 -3.7596715931033912e-07 -4.1821377925744628e-08 0.56250000000000000 0.062500000000000000 0.56249768861004246 0.062486956578157178 
0.62500000000000000 0.0000000000000000 0.0000000000000000 -3.0617022268418056e-06 -1.4200139896024386e-05 0.44363939319154611 1.0985812336620246e-06 0.0000000000000000 0.62500000000000000 0.0000000000000000 0.62499693829777314 -1.4200139896024386e-05 
0.62500000000000000 0.062500000000000000 0.0000000000000000 -2.3843622969195508e-06 -1.4139515701252839e-05 -0.0086959341287966563 -3.3852566332527833e-07 -4.5905748763651242e-08 0.62500000000000000 0.062500000000000000 0.62499761563770306 0.062485860484298737 
0.68750000000000000 0.0000000000000000 0.0000000000000000 -3.1059948915568981e-06 -1.5210389194316294e-05 0.31366193795409569 9.4539122234119113e-07 0.0000000000000000 0.68750000000000000 0.0000000000000000 0.68749689400510849 -1.5210389194316294e-05 
0.68750000000000000 0.062500000000000000 0.0000000000000000 -2.4317249221257399e-06 -1.5172598731981750e-05 -0.017602236977260950 -3.0020307268434076e-07 -4.8434059808957524e-08 0.68750000000000000 0.062500000000000000 0.68749756827507802 0.062484827401268019 
0.75000000000000000 0.0000000000000000 0.0000000000000000 -3.1315017623389879e-06 -1.6165305099691264e-05 0.20721017238657435 7.9206130174597622e-07 0.0000000000000000 0.75000000000000000 0.0000000000000000 0.74999686849823766 -1.6165305099691264e-05 
0.75000000000000000 0.062500000000000000 0.0000000000000000 -2.4595899610307452e-06 -1.6144153101740419e-05 -0.021514704654943595 -2.6082353927560928e-07 -5.1661551404497205e-08 0.75000000000000000 0.062500000000000000 0.74999754041003897 0.062483855846898258 
0.81250000000000000 0.0000000000000000 0.0000000000000000 -3.1440974218579016e-06 -1.7065632981269230e-05 0.12410061488296721 6.3426227812473372e-07 0.0000000000000000 0.81250000000000000 0.0000000000000000 0.81249685590257814 -1.7065632981269230e-05 
0.81250000000000000 0.062500000000000000 0.0000000000000000 -2.4737047252931490e-06 -1.7055587440194397e-05 -0.020654517953435859 -2.2021955013741196e-07 -4.8537480177339391e-08 0.81250000000000000 0.062500000000000000 0.81249752629527461 0.062482944412559804 
0.87500000000000000 0.0000000000000000 0.0000000000000000 -3.1488798268799947e-06 -1.7911702386159033e-05 0.064590235511837582 4.7731818101037653e-07 0.0000000000000000 0.87500000000000000 0.0000000000000000 0.87499685112017322 -1.7911702386159033e-05 
0.87500000000000000 0.062500000000000000 0.0000000000000000 -2.4791802493238196e-06 -1.7907866985524883e-05 -0.015385454314797741 -1.7922562283412107e-07 -6.4873084368380771e-08 0.87500000000000000 0.062500000000000000 0.87499752081975057 0.062482092133014477 
0.93750000000000000 0.0000000000000000 0.0000000000000000 -3.1493704165390752e-06 -1.8702062110754489e-05 0.025979892485242018 2.9435803879140768e-07 0.0000000000000000 0.93750000000000000 0.0000000000000000 0.93749685062958343 -1.8702062110754489e-05 
0.93750000000000000 0.062500000000000000 0.0000000000000000 -2.4803277319787187e-06 -1.8701570440827888e-05 -0.0075779192868323892 -1.3737217642668557e-07 -2.2661185230960106e-08 0.93750000000000000 0.062500000000000000 0.93749751967226802 0.062481298429559178 
1.0000000000000000 0.0000000000000000 0.0000000000000000 -3.1482823918732314e-06 -1.9441621007568800e-05 0.047027488423069780 0.0000000000000000 0.0000000000000000 1.0000000000000000 0.0000000000000000 0.99999685171760810 -1.9441621007568800e-05 
1.0000000000000000 0.062500000000000000 0.0000000000000000 -2.4802388525282664e-06 -1.9440552689061198e-05 0.011689156223893687 0.0000000000000000 -1.5310649071299186e-07 1.0000000000000000 0.062500000000000000 0.99999751976114748 0.062480559447310936 
0.062500000000000000 0.12500000000000000 0.0000000000000000 -7.5788100096131258e-10 -1.4022796048246764e-06 0.42041744739488224 -3.9461865514093825e-07 -9.5697869898713233e-07 0.062500000000000000 0.12500000000000000 0.062499999242118999 0.12499859772039516 
0.0000000000000000 0.12500000000000000 0.0000000000000000 -8.0053945718716516e-25 0.0000000000000000 0.63518581306776734 2.2733279713732632e-22 2.7762263750092024e-06 0.0000000000000000 0.12500000000000000 -8.0053945718716516e-25 0.12500000000000000 
0.12500000000000000 0.12500000000000000 0.0000000000000000 -2.2600145978710331e-08 -2.8176497140063359e-06 1.5941491909325229 1.4523610330124144e-06 1.3407811405283873e-06 0.12500000000000000 0.12500000000000000 0.12499997739985402 0.12499718235028599 
0.18750000000000000 0.12500000000000000 0.0000000000000000 -4.1481051479656128e-07 -4.5719314790656685e-06 0.30568976158977962 3.7545430276870706e-08 -4.2887320137618657e-07 0.18750000000000000 0.12500000000000000 0.18749958518948520 0.12499542806852093 
0.25000000000000000 0.12500000000000000 0.0000000000000000 -7.5300880930916905e-07 -6.2032302236359458e-06 0.28190141711522881 2.8918031714591565e-07 -1.6225769786987759e-08 0.25000000000000000 0.12500000000000000 0.24999924699119069 0.12499379676977636 
0.31250000000000000 0.12500000000000000 0.0000000000000000 -1.0293600821135546e-06 -7.7231980829805758e-06 0.22786907624895281 1.9182910450792129e-07 -8.6608654855836062e-08 0.31250000000000000 0.12500000000000000 0.31249897063991788 0.12499227680191703 
0.37500000000000000 0.12500000000000000 0.0000000000000000 -1.2517327359895870e-06 -9.1506059011257846e-06 0.18529291801547698 1.9281612584960380e-07 -6.2647038291529719e-08 0.37500000000000000 0.12500000000000000 0.37499874826726404 0.12499084939409888 
0.43750000000000000 0.12500000000000000 0.0000000000000000 -1.4263386515778731e-06 -1.0495407599767584e-05 0.14756246160282541 1.7276512567638300e-07 -6.4024993744116651e-08 0.43750000000000000 0.12500000000000000 0.43749857366134842 0.12498950459240023 
0.50000000000000000 0.12500000000000000 0.0000000000000000 -1.5592271403368428e-06 -1.1763523430442479e-05 0.11523837864406332 1.6008930144222783e-07 -6.1507666256756270e-08 0.50000000000000000 0.12500000000000000 0.49999844077285965 0.12498823647656955 
0.56250000000000000 0.12500000000000000 0.0000000000000000 -1.6562256766358554e-06 -1.2958511053005587e-05 0.087739434729704913 1.4718789564141535e-07 -6.0702470542337760e-08 0.56250000000000000 0.12500000000000000 0.56249834377432339 0.12498704148894700 
0.62500000000000000 0.12500000000000000 0.0000000000000000 -1.7230788855196384e-06 -1.4082712321180875e-05 0.064854688835988147 1.3544814090497954e-07 -5.9609345760936901e-08 0.62500000000000000 0.12500000000000000 0.62499827692111432 0.12498591728767881 
0.68750000000000000 0.12500000000000000 0.0000000000000000 -1.7654632500864151e-06 -1.5137957487433502e-05 0.046401812838306800 1.2424448233608402e-07 -5.7795194452327854e-08 0.68750000000000000 0.12500000000000000 0.68749823453674985 0.12498486204251257 
0.75000000000000000 0.12500000000000000 0.0000000000000000 -1.7889614778825491e-06 -1.6125938329365338e-05 0.032255247825618505 1.1356270760913358e-07 -5.7370641433810855e-08 0.75000000000000000 0.12500000000000000 0.74999821103852227 0.12498387406167065 
0.81250000000000000 0.12500000000000000 0.0000000000000000 -1.7989602955309223e-06 -1.7048430242440131e-05 0.022404828686247231 1.0292647810824875e-07 -5.0168695165596678e-08 0.81250000000000000 0.12500000000000000 0.81249820103970449 0.12498295156975757 
0.87500000000000000 0.12500000000000000 0.0000000000000000 -1.8004861538487344e-06 -1.7906998528446479e-05 0.016773710241361983 9.2784260072593022e-08 -6.7632961034674179e-08 0.87500000000000000 0.12500000000000000 0.87499819951384616 0.12498209300147155 
0.93750000000000000 0.12500000000000000 0.0000000000000000 -1.7979508482521204e-06 -1.8703281575729838e-05 0.013778068408315330 8.6074963486423327e-08 -1.3030388009067230e-09 0.93750000000000000 0.12500000000000000 0.93749820204915191 0.12498129671842427 
1.0000000000000000 0.12500000000000000 0.0000000000000000 -1.7942342462958329e-06 -1.9441908952630108e-05 0.045731447934446494 0.0000000000000000 -1.8161433751191652e-07 1.0000000000000000 0.12500000000000000 0.99999820576575382 0.12498055809104737 
0.062500000000000000 0.18750000000000000 0.0000000000000000 4.7085005800031724e-09 -1.4030675129525837e-06 0.37877453333272254 1.1703990290402270e-07 -6.3551956063143109e-07 0.062500000000000000 0.18750000000000000 0.062500004708500576 0.18749859693248705 
0.0000000000000000 0.18750000000000000 0.0000000000000000 1.5735522722036166e-25 0.0000000000000000 0.22391088650957144 1.2340923274010059e-21 2.4676734352776413e-06 0.0000000000000000 0.18750000000000000 1.5735522722036166e-25 0.18750000000000000 
0.12500000000000000 0.18750000000000000 0.0000000000000000 9.6439789571507077e-09 -2.8008651331110077e-06 0.34852636291357647 -3.2510292069033939e-07 6.6138560164716576e-09 0.12500000000000000 0.18750000000000000 0.12500000964397895 0.18749719913486687 
0.18750000000000000 0.18750000000000000 0.0000000000000000 7.1035476433218136e-09 -4.2291937839211942e-06 1.2837966746024554 9.3708949081467162e-07 8.9838359997119036e-07 0.18750000000000000 0.18750000000000000 0.18750000710354764 0.18749577080621607 
0.25000000000000000 0.18750000000000000 0.0000000000000000 -2.8233020574284902e-07 -5.9145551037868339e-06 0.26518255848816458 -1.9281060820669999e-07 -3.0423626631883663e-07 0.25000000000000000 0.18750000000000000 0.24999971766979426 0.18749408544489621 
0.31250000000000000 0.18750000000000000 0.0000000000000000 -5.2497878484514509e-07 -7.4896974356699681e-06 0.25210627474923070 4.4999300836052251e-08 2.8794805861788404e-09 0.31250000000000000 0.18750000000000000 0.31249947502121517 0.18749251030256434 
0.37500000000000000 0.18750000000000000 0.0000000000000000 -7.1915240887017143e-07 -8.9650755636161143e-06 0.20220172271181439 -1.4537272899717153e-08 -6.2766745469408372e-08 0.37500000000000000 0.18750000000000000 0.37499928084759121 0.18749103492443639 
0.43750000000000000 0.18750000000000000 0.0000000000000000 -8.7067452678896990e-07 -1.0352378036754837e-05 0.16479069374627664 -1.5577130736589505e-10 -4.5938215481527977e-08 0.43750000000000000 0.18750000000000000 0.43749912932547325 0.18748964762196321 
0.50000000000000000 0.18750000000000000 0.0000000000000000 -9.8453652106398178e-07 -1.1657500660566691e-05 0.13200497745061765 -4.3605027040540052e-09 -5.0578132871540615e-08 0.50000000000000000 0.18750000000000000 0.49999901546347886 0.18748834249933943 
0.56250000000000000 0.18750000000000000 0.0000000000000000 -1.0657460479774043e-06 -1.2884110981838837e-05 0.10438881365022416 -3.4137178066085955e-09 -5.0603598588528880e-08 0.56250000000000000 0.18750000000000000 0.56249893425395203 0.18748711588901815 
0.62500000000000000 0.18750000000000000 0.0000000000000000 -1.1193159108796979e-06 -1.4034562230177704e-05 0.081163141279183185 -3.1901424578238525e-09 -5.1744800079983389e-08 0.62500000000000000 0.18750000000000000 0.62499888068408904 0.18748596543776982 
0.68750000000000000 0.18750000000000000 0.0000000000000000 -1.1503071954188319e-06 -1.5110699607809846e-05 0.062088025694026161 -2.1061996701592951e-09 -5.1641064360846656e-08 0.68750000000000000 0.18750000000000000 0.68749884969280461 0.18748488930039220 
0.75000000000000000 0.18750000000000000 0.0000000000000000 -1.1638123632744370e-06 -1.6114273824571103e-05 0.046958453623900644 -5.9896930652342904e-10 -5.2877668865301686e-08 0.75000000000000000 0.18750000000000000 0.74999883618763674 0.18748388572617544 
0.81250000000000000 0.18750000000000000 0.0000000000000000 -1.1648917417207410e-06 -1.7047241813592578e-05 0.035894777095193821 1.3134203821653111e-09 -4.6592301181693991e-08 0.81250000000000000 0.18750000000000000 0.81249883510825816 0.18748295275818641 
0.87500000000000000 0.18750000000000000 0.0000000000000000 -1.1584449318970837e-06 -1.7911500563549312e-05 0.028771135037129487 3.7181567589640733e-09 -6.7202108892257667e-08 0.87500000000000000 0.18750000000000000 0.87499884155506813 0.18748208849943646 
0.93750000000000000 0.18750000000000000 0.0000000000000000 -1.1490013825040560e-06 -1.8709531326391616e-05 0.023778445997885384 5.2523052002940678e-09 1.0221523318079236e-08 0.93750000000000000 0.18750000000000000 0.93749885099861741 0.18748129046867359 
1.0000000000000000 0.18750000000000000 0.0000000000000000 -1.1401841202656434e-06 -1.9445903414166962e-05 0.073051027801925489 0.0000000000000000 -2.4034996303254018e-07 1.0000000000000000 0.18750000000000000 0.99999885981587988 0.18748055409658584 
0.062500000000000000 0.25000000000000000 0.0000000000000000 9.0144376345111922e-09 -1.4160938135612838e-06 0.28413793180229341 -4.6274722078192126e-08 -6.6879403709106422e-07 0.062500000000000000 0.25000000000000000 0.062500009014437641 0.24999858390618643 
0.0000000000000000 0.25000000000000000 0.0000000000000000 -1.6549626648886038e-24 0.0000000000000000 -0.13921681395405758 1.8186623771997377e-21 2.1946159817975526e-06 0.0000000000000000 0.25000000000000000 -1.6549626648886038e-24 0.25000000000000000 
0.12500000000000000 0.25000000000000000 0.0000000000000000 3.1255460851376716e-08 -2.8134579585970426e-06 0.32666143221477234 7.1268868348331459e-08 3.1159480511323032e-07 0.12500000000000000 0.25000000000000000 0.12500003125546086 0.24999718654204139 
0.18750000000000000 0.25000000000000000 0.0000000000000000 5.5875069958037390e-08 -4.2367723794210394e-06 0.30777904788302196 -2.4325524979339924e-07 -2.0852065683368677e-07 0.18750000000000000 0.25000000000000000 0.18750005587506993 0.24999576322762060 
0.25000000000000000 0.25000000000000000 0.0000000000000000 8.1612400303044048e-08 -5.6706689771220610e-06 1.0313642593087282 7.9086603368783326e-07 7.5217433935752886e-07 0.25000000000000000 0.25000000000000000 0.25000008161240034 0.24999432933102292 
0.31250000000000000 0.25000000000000000 0.0000000000000000 -1.1427461702370648e-07 -7.2917703422618962e-06 0.23387024023078284 -1.0810348640605264e-07 -2.6394980448929023e-07 0.31250000000000000 0.25000000000000000 0.31249988572538295 0.24999270822965777 
0.37500000000000000 0.25000000000000000 0.0000000000000000 -2.7057157053850273e-07 -8.8098470216246818e-06 0.22982278900441519 8.5712147137210587e-08 3.7133048721658119e-10 0.37500000000000000 0.25000000000000000 0.37499972942842946 0.24999119015297835 
0.43750000000000000 0.25000000000000000 0.0000000000000000 -3.8988606045982174e-07 -1.0234641511341501e-05 0.18642841825555675 3.0051631035596442e-08 -5.9934352231336112e-08 0.43750000000000000 0.25000000000000000 0.43749961011393962 0.24998976535848863 
0.50000000000000000 0.25000000000000000 0.0000000000000000 -4.7631520264517084e-07 -1.1572837900244833e-05 0.15496331460522531 3.9493410016371082e-08 -4.6662271024938921e-08 0.50000000000000000 0.25000000000000000 0.49999952368479733 0.24998842716209976 
0.56250000000000000 0.25000000000000000 0.0000000000000000 -5.3395465641615718e-07 -1.2827918767817298e-05 0.12743685357575987 3.3142844924285698e-08 -5.1468217268926139e-08 0.56250000000000000 0.25000000000000000 0.56249946604534362 0.24998717208123220 
0.62500000000000000 0.25000000000000000 0.0000000000000000 -5.6705619007366661e-07 -1.4002148176208317e-05 0.10434313560257553 3.1603064527152009e-08 -5.1858530604855822e-08 0.62500000000000000 0.25000000000000000 0.62499943294380989 0.24998599785182377 
0.68750000000000000 0.25000000000000000 0.0000000000000000 -5.8005658315892108e-07 -1.5097258780879802e-05 0.084945242314678551 2.9587237904947252e-08 -5.2390326587335894e-08 0.68750000000000000 0.25000000000000000 0.68749941994341679 0.24998490274121912 
0.75000000000000000 0.25000000000000000 0.0000000000000000 -5.7755737209030900e-07 -1.6114922098426910e-05 0.068999443820158282 2.8233063983004995e-08 -5.3792180954098839e-08 0.75000000000000000 0.25000000000000000 0.74999942244262796 0.24998388507790156 
0.81250000000000000 0.25000000000000000 0.0000000000000000 -5.6428077272432335e-07 -1.7057094641621264e-05 0.056622219703112132 2.7278370499065959e-08 -4.7538388889589772e-08 0.81250000000000000 0.25000000000000000 0.81249943571922711 0.24998294290535839 
0.87500000000000000 0.25000000000000000 0.0000000000000000 -5.4498317710612098e-07 -1.7925806721729605e-05 0.047606238421516921 2.6372261558843788e-08 -6.9440918261168911e-08 0.87500000000000000 0.25000000000000000 0.87499945501682286 0.24998207419327831 
0.93750000000000000 0.25000000000000000 0.0000000000000000 -5.2428245778542432e-07 -1.8724020053776425e-05 0.040181965069067703 2.6425600297249156e-08 1.8137471471203036e-08 0.93750000000000000 0.25000000000000000 0.93749947571754222 0.24998127597994621 
1.0000000000000000 0.25000000000000000 0.0000000000000000 -5.0609177456411561e-07 -1.9456217684111003e-05 0.11229675230510074 0.0000000000000000 -2.8370143712221871e-07 1.0000000000000000 0.25000000000000000 0.99999949390822540 0.24998054378231585 
0.062500000000000000 0.31250000000000000 0.0000000000000000 1.2200806512773021e-08 -1.4391340470447164e-06 0.22259313396507330 -3.9438319788109714e-08 -6.0205139634635601e-07 0.062500000000000000 0.31250000000000000 0.062500012200806518 0.31249856086595296 
0.0000000000000000 0.31250000000000000 0.0000000000000000 -1.9411544341964460e-24 0.0000000000000000 -0.46404716181445549 -1.1691400996353236e-21 2.0962322742755058e-06 0.0000000000000000 0.31250000000000000 -1.9411544341964460e-24 0.31250000000000000 
0.12500000000000000 0.31250000000000000 0.0000000000000000 4.9580264138182840e-08 -2.8490233989901219e-06 0.24623856041893355 -2.8788460683785089e-08 1.9682862343465300e-07 0.12500000000000000 0.31250000000000000 0.12500004958026414 0.31249715097660102 
0.18750000000000000 0.31250000000000000 0.0000000000000000 1.0063411803739401e-07 -4.2757870050182645e-06 0.30644345356906039 6.0965787028666625e-08 3.7084047867255860e-08 0.18750000000000000 0.31250000000000000 0.18750010063411804 0.31249572421299504 
0.25000000000000000 0.31250000000000000 0.0000000000000000 1.5576724764360927e-07 -5.7108463081261574e-06 0.27537001049465881 -2.1075210610111185e-07 -1.2046913731004157e-07 0.25000000000000000 0.31250000000000000 0.25000015576724760 0.31249428915369187 
0.31250000000000000 0.31250000000000000 0.0000000000000000 2.1597828222074933e-07 -7.1373088470556592e-06 0.83920048861087349 6.0540971875386499e-07 5.7019005831729166e-07 0.31250000000000000 0.31250000000000000 0.31250021597828220 0.31249286269115295 
0.37500000000000000 0.31250000000000000 0.0000000000000000 1.0436063097069385e-07 -8.6935522709966765e-06 0.21529252648871711 -1.0158521171405677e-07 -2.1484042804624840e-07 0.37500000000000000 0.31250000000000000 0.37500010436063097 0.31249130644772899 
0.43750000000000000 0.31250000000000000 0.0000000000000000 2.5192592247123594e-08 -1.0150441259807213e-05 0.21733409120236868 5.9907960470368218e-08 -4.1786108833503471e-09 0.43750000000000000 0.31250000000000000 0.43750002519259218 0.31248984955874021 
0.50000000000000000 0.31250000000000000 0.0000000000000000 -2.6626847910766428e-08 -1.1517097978697482e-05 0.18011184152722870 1.4393536893403921e-08 -5.6399461090213336e-08 0.50000000000000000 0.31250000000000000 0.49999997337315211 0.31248848290202130 
0.56250000000000000 0.31250000000000000 0.0000000000000000 -5.3998886740932445e-08 -1.2796935772021238e-05 0.15384544914125295 2.3196342684663883e-08 -4.6307385865990411e-08 0.56250000000000000 0.31250000000000000 0.56249994600111330 0.31248720306422800 
0.62500000000000000 0.31250000000000000 0.0000000000000000 -6.0417609193100725e-08 -1.3991941696289554e-05 0.13071926168481926 1.8823878256372049e-08 -5.1131885243121932e-08 0.62500000000000000 0.31250000000000000 0.62499993958239086 0.31248600805830368 
0.68750000000000000 0.31250000000000000 0.0000000000000000 -4.9639825320699492e-08 -1.5103594504040139e-05 0.11127825640216882 1.8669022013936707e-08 -5.1299356589970084e-08 0.68750000000000000 0.31250000000000000 0.68749995036017453 0.31248489640549598 
0.75000000000000000 0.31250000000000000 0.0000000000000000 -2.5753433672108538e-08 -1.6133347350906907e-05 0.094801483792014626 1.7999760571778873e-08 -5.3269424337586114e-08 0.75000000000000000 0.31250000000000000 0.74999997424656628 0.31248386665264910 
0.81250000000000000 0.31250000000000000 0.0000000000000000 6.8873381954715867e-09 -1.7082987130571511e-05 0.081434913029463221 1.8225414104737148e-08 -4.7665141487234109e-08 0.81250000000000000 0.31250000000000000 0.81250000688733814 0.31248291701286940 
0.87500000000000000 0.31250000000000000 0.0000000000000000 4.3711136986719702e-08 -1.7954484251593998e-05 0.070738019310669531 1.8325879189484410e-08 -6.9000032945260625e-08 0.87500000000000000 0.31250000000000000 0.87500004371113693 0.31248204551574843 
0.93750000000000000 0.31250000000000000 0.0000000000000000 8.0078511472740442e-08 -1.8750964050844598e-05 0.061039184460426443 1.8680914715008340e-08 1.9205850048873105e-08 0.93750000000000000 0.31250000000000000 0.93750008007851149 0.31248124903594915 
1.0000000000000000 0.31250000000000000 0.0000000000000000 1.1171697105326442e-07 -1.9476561798906042e-05 0.15956989818504022 0.0000000000000000 -2.9991952146756765e-07 1.0000000000000000 0.31250000000000000 1.0000001117169710 0.31248052343820110 
0.062500000000000000 0.37500000000000000 0.0000000000000000 1.5751468202566712e-08 -1.4710427535475062e-06 0.17103039618882568 -6.8643438269432368e-08 -6.1221559359662805e-07 0.062500000000000000 0.37500000000000000 0.062500015751468199 0.37499852895724645 
0.0000000000000000 0.37500000000000000 0.0000000000000000 -1.7172766068334497e-24 0.0000000000000000 -0.77864486383634535 2.2083757437713290e-21 2.1430862483866802e-06 0.0000000000000000 0.37500000000000000 -1.7172766068334497e-24 0.37500000000000000 
0.12500000000000000 0.37500000000000000 0.0000000000000000 6.7004584241409628e-08 -2.9041249017853392e-06 0.19051233736563189 -1.3036793269987856e-08 2.0064551878083781e-07 0.12500000000000000 0.37500000000000000 0.12500006700458424 0.37499709587509816 
0.18750000000000000 0.37500000000000000 0.0000000000000000 1.4115433674404438e-07 -4.3446726520954703e-06 0.24219828610142213 -2.9416446809083393e-08 -3.6986875088166338e-08 0.18750000000000000 0.37500000000000000 0.18750014115433675 0.37499565532734791 
0.25000000000000000 0.37500000000000000 0.0000000000000000 2.2852869001400091e-07 -5.7835245850928589e-06 0.28542498827818902 5.1754485884064785e-08 8.3058719738173705e-08 0.25000000000000000 0.37500000000000000 0.25000022852869003 0.37499421647541492 
0.31250000000000000 0.37500000000000000 0.0000000000000000 3.1970946519684544e-07 -7.2143376296067608e-06 0.25420621730438286 -1.6899335634254492e-07 -1.2173280461885736e-07 0.31250000000000000 0.37500000000000000 0.31250031970946518 0.37499278566237043 
0.37500000000000000 0.37500000000000000 0.0000000000000000 4.1750276616916577e-07 -8.6193814770378772e-06 0.69253405890892517 4.7688260420996564e-07 4.4209749159304443e-07 0.37500000000000000 0.37500000000000000 0.37500041750276619 0.37499138061852294 
0.43750000000000000 0.37500000000000000 0.0000000000000000 3.8148826221840957e-07 -1.0106948155458763e-05 0.20638171271237934 -8.0170516969855889e-08 -1.8173492024519344e-07 0.43750000000000000 0.37500000000000000 0.43750038148826226 0.37498989305184455 
0.50000000000000000 0.37500000000000000 0.0000000000000000 3.7107865777344268e-07 -1.1496786636927338e-05 0.21224231452941419 5.2923321161252518e-08 -9.6617167622005325e-09 0.50000000000000000 0.37500000000000000 0.50000037107865769 0.37498850321336308 
0.56250000000000000 0.37500000000000000 0.0000000000000000 3.7982913132652718e-07 -1.2797220888168062e-05 0.18097849243950423 1.4620793987806988e-08 -5.5273125095036307e-08 0.56250000000000000 0.37500000000000000 0.56250037982913137 0.37498720277911185 
0.62500000000000000 0.37500000000000000 0.0000000000000000 4.0562331560088211e-07 -1.4009581358595578e-05 0.15930020562093641 2.2173176729926244e-08 -4.7374797054784990e-08 0.62500000000000000 0.37500000000000000 0.62500040562331549 0.37498599041864139 
0.68750000000000000 0.37500000000000000 0.0000000000000000 4.4532558402618751e-07 -1.5134985879066258e-05 0.13998053111077066 1.8732291813167814e-08 -5.1577138180111938e-08 0.68750000000000000 0.37500000000000000 0.68750044532558408 0.37498486501412093 
0.75000000000000000 0.37500000000000000 0.0000000000000000 4.9544809998430199e-07 -1.6174502594579817e-05 0.12349308867840685 1.8815480281036219e-08 -5.2996655139807149e-08 0.75000000000000000 0.37500000000000000 0.75000049544809999 0.37498382549740544 
0.81250000000000000 0.37500000000000000 0.0000000000000000 5.5204870941265873e-07 -1.7129591827006135e-05 0.10961208430823510 1.9010907197244824e-08 -4.8733293076802305e-08 0.81250000000000000 0.37500000000000000 0.81250055204870930 0.37498287040817302 
0.87500000000000000 0.37500000000000000 0.0000000000000000 6.1080468326648322e-07 -1.8001983391734861e-05 0.097702780859150337 1.9123580549586053e-08 -6.8274860255798923e-08 0.87500000000000000 0.37500000000000000 0.87500061080468328 0.37498199801660825 