# For a description of the Tecplot format see the Tecplot User's guide.
#
Variables=x,y,z,s_u,s_v,s_p,x,y,ref_u,ref_v,u,v
Zone f=fepoint, n=289, e=512, et=quadrilateral, c=black
0.00000 0.00000 0.00000 0.0000000000000000 0.0000000000000000 1.9184725466062735 0.0000000000000000 0.0000000000000000 0.0000000000000000 0.0000000000000000 0.0000000000000000 0.0000000000000000 
0.062500000000000000 0.0000000000000000 0.0000000000000000 -1.5548342121117094e-06 -3.2409504189035570e-06 1.5376090050675109 1.3829298261144440e-06 0.0000000000000000 0.062500000000000000 0.0000000000000000 0.062498445165787890 -3.2409504189035570e-06 
0.062500000000000000 0.062500000000000000 0.0000000000000000 -3.6541062621473660e-07 -2.0491641899932874e-06 1.5801222069546930 8.0751631329534471e-07 3.8250996329782819e-07 0.062500000000000000 0.062500000000000000 0.062499634589373791 0.062497950835810008 
0.0000000000000000 0.062500000000000000 0.0000000000000000 0.0000000000000000 0.0000000000000000 1.6595486402250856 0.0000000000000000 1.0941373636078943e-06 0.0000000000000000 0.062500000000000000 0.0000000000000000 0.062500000000000000 
0.12500000000000000 0.0000000000000000 0.0000000000000000 -2.6092849626372945e-06 -5.1416041841927881e-06 1.1128365890399678 4.6327655251949355e-07 0.0000000000000000 0.12500000000000000 0.0000000000000000 0.12499739071503736 -5.1416041841927881e-06 
0.12500000000000000 0.062500000000000000 0.0000000000000000 -1.3031440955620166e-06 -4.2041064908818796e-06 1.1932608809240379 4.7231633395481505e-07 -1.6038840610282891e-07 0.12500000000000000 0.062500000000000000 0.12499869685590444 0.062495795893509121 
0.18750000000000000 0.0000000000000000 0.0000000000000000 -3.4522443119300461e-06 -6.8011523751408742e-06 0.86439684467106359 3.2202484011171158e-07 0.0000000000000000 0.18750000000000000 0.0000000000000000 0.18749654775568811 -6.8011523751408742e-06 
0.18750000000000000 0.062500000000000000 0.0000000000000000 -2.1027413266135339e-06 -6.0398921913738419e-06 0.91426798447371771 3.5781716046449612e-07 -3.1070238911605726e-08 0.18750000000000000 0.062500000000000000 0.18749789725867338 0.062493960107808617 
0.25000000000000000 0.0000000000000000 0.0000000000000000 -4.1495565885864692e-06 -8.3962986822667506e-06 0.69647198800540389 2.3756886945574886e-07 0.0000000000000000 0.25000000000000000 0.0000000000000000 0.24999585044341141 -8.3962986822667506e-06 
0.25000000000000000 0.062500000000000000 0.0000000000000000 -2.7751104576864694e-06 -7.7685330238472374e-06 0.72942919991592936 2.4129192451172702e-07 -1.8082207846557546e-08 0.25000000000000000 0.062500000000000000 0.24999722488954232 0.062492231466976154 
0.31250000000000000 0.0000000000000000 0.0000000000000000 -4.7264287856584537e-06 -9.9726134291305510e-06 0.56653776217208673 1.9601361553980391e-07 0.0000000000000000 0.31250000000000000 0.0000000000000000 0.31249527357121432 -9.9726134291305510e-06 
0.31250000000000000 0.062500000000000000 0.0000000000000000 -3.3354602972906402e-06 -9.4561455333168571e-06 0.59286489771623807 1.9317261044004822e-07 -1.0665483834537080e-08 0.31250000000000000 0.062500000000000000 0.31249666453970271 0.062490543854466681 
0.37500000000000000 0.0000000000000000 0.0000000000000000 -5.1965626899825176e-06 -1.1540787803027759e-05 0.45769643555345757 1.7073777584591376e-07 0.0000000000000000 0.37500000000000000 0.0000000000000000 0.37499480343731001 -1.1540787803027759e-05 
0.37500000000000000 0.062500000000000000 0.0000000000000000 -3.7961481514878819e-06 -1.1121754759819225e-05 0.48229326827670099 1.6233114571739884e-07 -1.5761517396813076e-08 0.37500000000000000 0.062500000000000000 0.37499620385184856 0.062488878245240180 
0.43750000000000000 0.0000000000000000 0.0000000000000000 -5.5701356784146704e-06 -1.3099026166147236e-05 0.36324705783296535 1.5093672258440786e-07 0.0000000000000000 0.43750000000000000 0.0000000000000000 0.43749442986432158 -1.3099026166147236e-05 
0.43750000000000000 0.062500000000000000 0.0000000000000000 -4.1676797012028626e-06 -1.2766798263934322e-05 0.38811056185647413 1.4030168925353657e-07 -2.4948672406852231e-08 0.43750000000000000 0.062500000000000000 0.43749583232029882 0.062487233201736068 
0.50000000000000000 0.0000000000000000 0.0000000000000000 -5.8565061339530712e-06 -1.4640650224884881e-05 0.28065697785667321 1.3283765981518247e-07 0.0000000000000000 0.50000000000000000 0.0000000000000000 0.49999414349386601 -1.4640650224884881e-05 
0.50000000000000000 0.062500000000000000 0.0000000000000000 -4.4595921502592558e-06 -1.4385693023410974e-05 0.30633778527315636 1.2188604103668468e-07 -3.5225365399674779e-08 0.50000000000000000 0.062500000000000000 0.49999554040784971 0.062485614306976585 
0.56250000000000000 0.0000000000000000 0.0000000000000000 -6.0652490515242703e-06 -1.6157341513957625e-05 0.20911045717494203 1.1480101610455144e-07 0.0000000000000000 0.56250000000000000 0.0000000000000000 0.56249393475094844 -1.6157341513957625e-05 
0.56250000000000000 0.062500000000000000 0.0000000000000000 -4.6810336200208236e-06 -1.5970296236536692e-05 0.23538915865304336 1.0486535157367463e-07 -4.4666813119464986e-08 0.56250000000000000 0.062500000000000000 0.56249531896637983 0.062484029703763454 
0.62500000000000000 0.0000000000000000 0.0000000000000000 -6.2065961508187114e-06 -1.7640824604152925e-05 0.14848127042979087 9.6148481358951565e-08 0.0000000000000000 0.62500000000000000 0.0000000000000000 0.62499379340384920 -1.7640824604152925e-05 
0.62500000000000000 0.062500000000000000 0.0000000000000000 -4.8411118785425164e-06 -1.7512097164559609e-05 0.17466994972484229 8.8371426028076152e-08 -5.1978007187225353e-08 0.62500000000000000 0.062500000000000000 0.62499515888812140 0.062482487902835442 
0.68750000000000000 0.0000000000000000 0.0000000000000000 -6.2916624643586486e-06 -1.9083957278524367e-05 0.098857851743113748 7.6860764945286473e-08 0.0000000000000000 0.68750000000000000 0.0000000000000000 0.68749370833753565 -1.9083957278524367e-05 
0.68750000000000000 0.062500000000000000 0.0000000000000000 -4.9491096548803970e-06 -1.9003519591606202e-05 0.12393148502387408 7.2265935636299735e-08 -5.6081001978301595e-08 0.68750000000000000 0.062500000000000000 0.68749505089034513 0.062480996480408391 
0.75000000000000000 0.0000000000000000 0.0000000000000000 -6.3325920182367370e-06 -2.0481677627084025e-05 0.060266599548123724 5.6678880181332266e-08 0.0000000000000000 0.75000000000000000 0.0000000000000000 0.74999366740798179 -2.0481677627084025e-05 
0.75000000000000000 0.062500000000000000 0.0000000000000000 -5.0146363710972870e-06 -2.0438959244214394e-05 0.082931466024097608 5.6561343392948305e-08 -5.5986946338739063e-08 0.75000000000000000 0.062500000000000000 0.74999498536362885 0.062479561040755784 
0.81250000000000000 0.0000000000000000 0.0000000000000000 -6.3426234750351144e-06 -2.1832090974353526e-05 0.032470338381411369 3.7644284118801262e-08 0.0000000000000000 0.81250000000000000 0.0000000000000000 0.81249365737652501 -2.1832090974353526e-05 
0.81250000000000000 0.062500000000000000 0.0000000000000000 -5.0477626162184457e-06 -2.1815924029549271e-05 0.051240918481104909 4.2639121168214296e-08 -5.0672579791411359e-08 0.81250000000000000 0.062500000000000000 0.81249495223738377 0.062478184075970451 
0.87500000000000000 0.0000000000000000 0.0000000000000000 -6.3359183596109962e-06 -2.3137869083263165e-05 0.014753065198964188 1.6932208490586401e-08 0.0000000000000000 0.87500000000000000 0.0000000000000000 0.87499366408164037 -2.3137869083263165e-05 
0.87500000000000000 0.062500000000000000 0.0000000000000000 -5.0591484454783227e-06 -2.3136546210607817e-05 0.028162516025873770 2.8135497672487713e-08 -3.9594433439702512e-08 0.87500000000000000 0.062500000000000000 0.87499494085155438 0.062476863453789395 
0.93750000000000000 0.0000000000000000 0.0000000000000000 -6.3266392860648447e-06 -2.4407776160043648e-05 0.0056639245107848917 5.4291216347811846e-09 0.0000000000000000 0.93750000000000000 0.0000000000000000 0.93749367336071410 -2.4407776160043648e-05 
0.93750000000000000 0.062500000000000000 0.0000000000000000 -5.0601052980828843e-06 -2.4409655029800789e-05 0.012886569874073330 2.3720885900356501e-08 -2.3482341220467047e-08 0.93750000000000000 0.062500000000000000 0.93749493989470178 0.062475590344970196 
1.0000000000000000 0.0000000000000000 0.0000000000000000 -6.3246718191723239e-06 -2.5655030604563850e-05 0.0023505221321782417 0.0000000000000000 0.0000000000000000 1.0000000000000000 0.0000000000000000 0.99999367532818084 -2.5655030604563850e-05 
1.0000000000000000 0.062500000000000000 0.0000000000000000 -5.0620319703975461e-06 -2.5653098275699488e-05 0.0056862790458598426 0.0000000000000000 -5.6219805387531886e-09 1.0000000000000000 0.062500000000000000 0.99999493796802963 0.062474346901724299 
0.062500000000000000 0.12500000000000000 0.0000000000000000 -1.6333747999416225e-07 -1.6043516672562209e-06 1.2979244299791923 1.0413131131922488e-07 4.6277585835865882e-07 0.062500000000000000 0.12500000000000000 0.062499836662520007 0.12499839564833275 
0.0000000000000000 0.12500000000000000 0.0000000000000000 0.0000000000000000 0.0000000000000000 1.2653723203397531 0.0000000000000000 6.1628096634438625e-07 0.0000000000000000 0.12500000000000000 0.0000000000000000 0.12500000000000000 
0.12500000000000000 0.12500000000000000 0.0000000000000000 -5.9989446425879842e-07 -3.4449359385892054e-06 1.1248692811964989 3.9245838863979970e-07 2.7068152589102113e-07 0.12500000000000000 0.12500000000000000 0.12499940010553574 0.12499655506406139 
0.18750000000000000 0.12500000000000000 0.0000000000000000 -1.2070474457100701e-06 -5.3568724135468725e-06 0.89476889303826701 3.4699164698699159e-07 9.7723889424065050e-08 0.18750000000000000 0.12500000000000000 0.18749879295255426 0.12499464312758646 
0.25000000000000000 0.12500000000000000 0.0000000000000000 -1.7701502027399961e-06 -7.1871808443633288e-06 0.71559660607682651 2.3352627382492132e-07 5.5699660655632664e-08 0.25000000000000000 0.12500000000000000 0.24999822984979722 0.12499281281915564 
0.31250000000000000 0.12500000000000000 0.0000000000000000 -2.2585203699759295e-06 -8.9708418755504928e-06 0.58296062888192790 1.8397362106966645e-07 4.1270226362377845e-08 0.31250000000000000 0.12500000000000000 0.31249774147963000 0.12499102915812445 
0.37500000000000000 0.12500000000000000 0.0000000000000000 -2.6685672552126435e-06 -1.0723672872543420e-05 0.47856585523358630 1.4969400988757626e-07 2.4464942716886205e-08 0.37500000000000000 0.12500000000000000 0.37499733143274477 0.12498927632712746 
0.43750000000000000 0.12500000000000000 0.0000000000000000 -3.0039503032493133e-06 -1.2447274834819167e-05 0.39172590321113671 1.2773760527246731e-07 8.6743260071523645e-09 0.43750000000000000 0.12500000000000000 0.43749699604969677 0.12498755272516517 
0.50000000000000000 0.12500000000000000 0.0000000000000000 -3.2706415420493018e-06 -1.4136424537308973e-05 0.31731864106441060 1.1050314230268576e-07 -6.3468228084986921e-09 0.50000000000000000 0.12500000000000000 0.49999672935845796 0.12498586357546269 
0.56250000000000000 0.12500000000000000 0.0000000000000000 -3.4754164160787601e-06 -1.5783161795354561e-05 0.25296568960809618 9.5605875144306673e-08 -1.9573477697101666e-08 0.56250000000000000 0.12500000000000000 0.56249652458358390 0.12498421683820464 
0.62500000000000000 0.12500000000000000 0.0000000000000000 -3.6253618145540962e-06 -1.7378988895979777e-05 0.19750206975807336 8.1954843482511228e-08 -3.0333913738629817e-08 0.62500000000000000 0.12500000000000000 0.62499637463818558 0.12498262101110402 
0.68750000000000000 0.12500000000000000 0.0000000000000000 -3.7277600956385183e-06 -1.8916189274937117e-05 0.15020506896853181 6.9379048609548775e-08 -3.7992105676960779e-08 0.68750000000000000 0.12500000000000000 0.68749627223990439 0.12498108381072505 
0.75000000000000000 0.12500000000000000 0.0000000000000000 -3.7901716024480375e-06 -2.0388823678146975e-05 0.11039327990013907 5.7788900312131803e-08 -4.1987703551878328e-08 0.75000000000000000 0.12500000000000000 0.74999620982839754 0.12497961117632185 
0.81250000000000000 0.12500000000000000 0.0000000000000000 -3.8207047861769849e-06 -2.1793745754488615e-05 0.077247631303390116 4.8684052622242921e-08 -4.1631627595322657e-08 0.81250000000000000 0.12500000000000000 0.81249617929521378 0.12497820625424551 
0.87500000000000000 0.12500000000000000 0.0000000000000000 -3.8285254431220210e-06 -2.3131891448518213e-05 0.049872225362552279 3.8143876873870677e-08 -3.6977342870419306e-08 0.87500000000000000 0.12500000000000000 0.87499617147455677 0.12497686810855148 
0.93750000000000000 0.12500000000000000 0.0000000000000000 -3.8246891114303893e-06 -2.4410102398319392e-05 0.028001474679359248 3.8986368680322259e-08 -2.7201162015099707e-08 0.93750000000000000 0.12500000000000000 0.93749617531088869 0.12497558989760170 
1.0000000000000000 0.12500000000000000 0.0000000000000000 -3.8232655812824752e-06 -2.5644020206583853e-05 0.014773992943486539 0.0000000000000000 -1.7539765646850423e-08 1.0000000000000000 0.12500000000000000 0.99999617673441887 0.12497435597979341 
0.062500000000000000 0.18750000000000000 0.0000000000000000 -8.6555002928927127e-08 -1.3809848588337465e-06 1.0088203183654809 2.7979808497384997e-08 4.1738197815873728e-07 0.062500000000000000 0.18750000000000000 0.062499913444997064 0.18749861901514117 
0.0000000000000000 0.18750000000000000 0.0000000000000000 0.0000000000000000 0.0000000000000000 0.95606088225683772 0.0000000000000000 4.7569205450850594e-07 0.0000000000000000 0.18750000000000000 0.0000000000000000 0.18750000000000000 
0.12500000000000000 0.18750000000000000 0.0000000000000000 -3.1388459378374290e-07 -3.0349578528929542e-06 0.94085589269791459 1.8859452353201969e-07 3.3037158564536366e-07 0.12500000000000000 0.18750000000000000 0.12499968611540622 0.18749696504214711 
0.18750000000000000 0.18750000000000000 0.0000000000000000 -6.6195754351594684e-07 -4.8492478813763270e-06 0.80989857740192550 2.3299294185530600e-07 1.7997380536485171e-07 0.18750000000000000 0.18750000000000000 0.18749933804245647 0.18749515075211862 
0.25000000000000000 0.18750000000000000 0.0000000000000000 -1.0656262235193434e-06 -6.7138444289655327e-06 0.66908680091954675 2.0507737398127976e-07 9.7711506999335576e-08 0.25000000000000000 0.18750000000000000 0.24999893437377649 0.18749328615557104 
0.31250000000000000 0.18750000000000000 0.0000000000000000 -1.4440393746767668e-06 -8.5607338454458780e-06 0.55264251641994100 1.6329674575590010e-07 6.4018126117201175e-08 0.31250000000000000 0.18750000000000000 0.31249855596062531 0.18749143926615455 
0.37500000000000000 0.18750000000000000 0.0000000000000000 -1.7726386954327771e-06 -1.0381305639674312e-05 0.45982237453286995 1.3137997171057131e-07 4.0438536759396364e-08 0.37500000000000000 0.18750000000000000 0.37499822736130456 0.18748961869436032 
0.43750000000000000 0.18750000000000000 0.0000000000000000 -2.0450989874512123e-06 -1.2170109579563172e-05 0.38355596340670678 1.1059819861284434e-07 2.1303490527152007e-08 0.43750000000000000 0.18750000000000000 0.43749795490101256 0.18748782989042043 
0.50000000000000000 0.18750000000000000 0.0000000000000000 -2.2620511303770828e-06 -1.3919559459264453e-05 0.31896886347563896 9.4803591117373691e-08 3.8585138332896982e-09 0.50000000000000000 0.18750000000000000 0.49999773794886965 0.18748608044054074 
0.56250000000000000 0.18750000000000000 0.0000000000000000 -2.4269862611629516e-06 -1.5620818014439307e-05 0.26334808356128031 8.2059918188229027e-08 -1.1491515465986901e-08 0.56250000000000000 0.18750000000000000 0.56249757301373882 0.18748437918198557 
0.62500000000000000 0.18750000000000000 0.0000000000000000 -2.5446222956481240e-06 -1.7265007947821253e-05 0.21516388195567579 7.1118831622985598e-08 -2.4466742277631847e-08 0.62500000000000000 0.18750000000000000 0.62499745537770435 0.18748273499205217 
0.68750000000000000 0.18750000000000000 0.0000000000000000 -2.6202854080629245e-06 -1.8844122480982707e-05 0.17336485790598166 6.1763119953197744e-08 -3.4663575458014662e-08 0.68750000000000000 0.18750000000000000 0.68749737971459191 0.18748115587751901 
0.75000000000000000 0.18750000000000000 0.0000000000000000 -2.6598172924913286e-06 -2.0351741119293643e-05 0.13696604395967746 5.3893390549038878e-08 -4.1764917783282568e-08 0.75000000000000000 0.18750000000000000 0.74999734018270747 0.18747964825888072 
0.81250000000000000 0.18750000000000000 0.0000000000000000 -2.6698766889029890e-06 -2.1783722252100793e-05 0.10487177785500747 4.8913789166151137e-08 -4.5286592139319241e-08 0.81250000000000000 0.18750000000000000 0.81249733012331105 0.18747821627774794 
0.87500000000000000 0.18750000000000000 0.0000000000000000 -2.6586472503462992e-06 -2.3139024237674747e-05 0.076004373003341480 4.2482091600129039e-08 -4.5457712002476304e-08 0.87500000000000000 0.18750000000000000 0.87499734135274954 0.18747686097576233 
0.93750000000000000 0.18750000000000000 0.0000000000000000 -2.6370386439725476e-06 -2.4420820092124950e-05 0.050346895633203902 4.8292857515731440e-08 -4.0461013884798303e-08 0.93750000000000000 0.18750000000000000 0.93749736296135600 0.18747557917990787 
1.0000000000000000 0.18750000000000000 0.0000000000000000 -2.6203796528959985e-06 -2.5638308401140171e-05 0.032299054772200485 0.0000000000000000 -3.7983905650187371e-08 1.0000000000000000 0.18750000000000000 0.99999737962034707 0.18747436169159890 
0.062500000000000000 0.25000000000000000 0.0000000000000000 -4.7284282476816418e-08 -1.2669540495630670e-06 0.76878308886353741 -2.9230063462741846e-08 3.3918306474320036e-07 0.062500000000000000 0.25000000000000000 0.062499952715717517 0.24999873304595041 
0.0000000000000000 0.25000000000000000 0.0000000000000000 0.0000000000000000 0.0000000000000000 0.71239882513346897 0.0000000000000000 3.7474752447501307e-07 0.0000000000000000 0.25000000000000000 0.0000000000000000 0.25000000000000000 
0.12500000000000000 0.25000000000000000 0.0000000000000000 -1.6301122745270936e-07 -2.8104883775225610e-06 0.74564879234378034 9.1420420889037413e-08 2.9688970701925439e-07 0.12500000000000000 0.25000000000000000 0.12499983698877255 0.24999718951162245 
0.18750000000000000 0.25000000000000000 0.0000000000000000 -3.5072019550812143e-07 -4.5444246593572207e-06 0.67878312409407082 1.2806269330717467e-07 2.2348411544515384e-07 0.18750000000000000 0.25000000000000000 0.18749964927980448 0.24999545557534067 
0.25000000000000000 0.25000000000000000 0.0000000000000000 -5.8858835704689617e-07 -6.3819787772330141e-06 0.59091043343521366 1.4639298985297498e-07 1.4845069196588139e-07 0.25000000000000000 0.25000000000000000 0.24999941141164292 0.24999361802122277 
0.31250000000000000 0.25000000000000000 0.0000000000000000 -8.3864921427372612e-07 -8.2547198672874916e-06 0.50363398914460122 1.2925807070573546e-07 9.2879519526082169e-08 0.31250000000000000 0.25000000000000000 0.31249916135078570 0.24999174528013271 
0.37500000000000000 0.25000000000000000 0.0000000000000000 -1.0660571676524511e-06 -1.0119831812709828e-05 0.42854504685800027 1.0784201214994778e-07 6.0037989393450428e-08 0.37500000000000000 0.25000000000000000 0.37499893394283235 0.24998988016818727 
0.43750000000000000 0.25000000000000000 0.0000000000000000 -1.2563771400711472e-06 -1.1958017968407776e-05 0.36581075663458412 9.0728806595056874e-08 3.5865736285746175e-08 0.43750000000000000 0.25000000000000000 0.43749874362285995 0.24998804198203159 
0.50000000000000000 0.25000000000000000 0.0000000000000000 -1.4051845071932875e-06 -1.3756118977709277e-05 0.31278403710156694 7.7471272211072484e-08 1.5824512195226196e-08 0.50000000000000000 0.25000000000000000 0.49999859481549275 0.24998624388102228 
0.56250000000000000 0.25000000000000000 0.0000000000000000 -1.5127308607831962e-06 -1.5502946594701398e-05 0.26724091650742599 6.7102040246789508e-08 -1.3407930497463786e-09 0.56250000000000000 0.25000000000000000 0.56249848726913931 0.24998449705340531 
0.62500000000000000 0.25000000000000000 0.0000000000000000 -1.5814559429661993e-06 -1.7188560948490402e-05 0.22766147921915533 5.8644461493415807e-08 -1.6062550198219949e-08 0.62500000000000000 0.25000000000000000 0.62499841854405702 0.24998281143905152 
0.68750000000000000 0.25000000000000000 0.0000000000000000 -1.6149034464280674e-06 -1.8804323489992556e-05 0.19289431816601968 5.1936040207707979e-08 -2.8360391968845605e-08 0.68750000000000000 0.25000000000000000 0.68749838509655359 0.24998119567651003 
0.75000000000000000 0.25000000000000000 0.0000000000000000 -1.6174094220664940e-06 -2.0343094430973574e-05 0.16183698911024322 4.6903848604681170e-08 -3.8256525366447841e-08 0.75000000000000000 0.25000000000000000 0.74999838259057794 0.24997965690556903 
0.81250000000000000 0.25000000000000000 0.0000000000000000 -1.5943355257306789e-06 -2.1799451317330393e-05 0.13327369337174469 4.4834898811601412e-08 -4.5551489399258544e-08 0.81250000000000000 0.25000000000000000 0.81249840566447429 0.24997820054868267 
0.87500000000000000 0.25000000000000000 0.0000000000000000 -1.5528014267033798e-06 -2.3169918232850837e-05 0.10600732635227661 4.1585773138072316e-08 -5.0707973573635575e-08 0.87500000000000000 0.25000000000000000 0.87499844719857334 0.24997683008176716 
0.93750000000000000 0.25000000000000000 0.0000000000000000 -1.5029542610469130e-06 -2.4453212828172418e-05 0.079993496842361442 5.0465246649073692e-08 -5.1565724577119160e-08 0.93750000000000000 0.25000000000000000 0.93749849704573907 0.24997554678717182 
1.0000000000000000 0.25000000000000000 0.0000000000000000 -1.4596469432426833e-06 -2.5650574874460999e-05 0.059128523843159309 0.0000000000000000 -5.5163379854751609e-08 1.0000000000000000 0.25000000000000000 0.99999854035305680 0.24997434942512553 
0.062500000000000000 0.31250000000000000 0.0000000000000000 -2.3774174785558099e-08 -1.2149279199612860e-06 0.56775931933811397 -5.5915910838779326e-08 2.9406866309012828e-07 0.062500000000000000 0.31250000000000000 0.062499976225825211 0.31249878507208001 
0.0000000000000000 0.31250000000000000 0.0000000000000000 0.0000000000000000 0.0000000000000000 0.50987984725678093 0.0000000000000000 3.1560919689513441e-07 0.0000000000000000 0.31250000000000000 0.0000000000000000 0.31250000000000000 
0.12500000000000000 0.31250000000000000 0.0000000000000000 -7.0999103688012758e-08 -2.6993789048092647e-06 0.56892889236323807 4.2047169793047584e-08 2.6633374892668408e-07 0.12500000000000000 0.31250000000000000 0.12499992900089631 0.31249730062109521 
0.18750000000000000 0.31250000000000000 0.0000000000000000 -1.5245059774442516e-07 -4.3828042814116533e-06 0.53949734194032006 6.3712390678159095e-08 2.1771718998722914e-07 0.18750000000000000 0.31250000000000000 0.18749984754940227 0.31249561719571867 
0.25000000000000000 0.31250000000000000 0.0000000000000000 -2.6319143181011826e-07 -6.1925671558733742e-06 0.49253609269645215 8.3623755064785321e-08 1.6396657926959726e-07 0.25000000000000000 0.31250000000000000 0.24999973680856821 0.31249380743284411 
0.31250000000000000 0.31250000000000000 0.0000000000000000 -3.8734043381642219e-07 -8.0659901368033084e-06 0.43856611059435374 8.5991127527857066e-08 1.1367788028692513e-07 0.31250000000000000 0.31250000000000000 0.31249961265956611 0.31249193400986325 
0.37500000000000000 0.31250000000000000 0.0000000000000000 -5.0537456494371013e-07 -9.9549476901213326e-06 0.38626358841480729 7.8301691158580502e-08 7.5324476067779060e-08 0.37500000000000000 0.31250000000000000 0.37499949462543508 0.31249004505230987 
0.43750000000000000 0.31250000000000000 0.0000000000000000 -6.0193305945530051e-07 -1.1826916489970705e-05 0.34005065602822365 6.7569285813639073e-08 4.6936902640786096e-08 0.43750000000000000 0.31250000000000000 0.43749939806694055 0.31248817308351001 
0.50000000000000000 0.31250000000000000 0.0000000000000000 -6.7000290944337930e-07 -1.3661561071713373e-05 0.30028119167019129 5.8119961801564607e-08 2.4443753991904702e-08 0.50000000000000000 0.31250000000000000 0.49999932999709057 0.31248633843892831 
0.56250000000000000 0.31250000000000000 0.0000000000000000 -7.0761652634481931e-07 -1.5444236625031750e-05 0.26598137322037979 5.0438128267030478e-08 5.5579047603146489e-09 0.56250000000000000 0.31250000000000000 0.56249929238347363 0.31248455576337492 
0.62500000000000000 0.31250000000000000 0.0000000000000000 -7.1546041254451708e-07 -1.7163339602947104e-05 0.23607962398421778 4.4315946793179248e-08 -1.0702347566133712e-08 0.62500000000000000 0.31250000000000000 0.62499928453958742 0.31248283666039706 
0.68750000000000000 0.31250000000000000 0.0000000000000000 -6.9561724129949902e-07 -1.8809293363124258e-05 0.20959118082248498 3.9764264534029520e-08 -2.4775816732958762e-08 0.68750000000000000 0.31250000000000000 0.68749930438275875 0.31248119070663688 
0.75000000000000000 0.31250000000000000 0.0000000000000000 -6.5109878660482275e-07 -2.0374082820830823e-05 0.18549363476313374 3.6816303261770686e-08 -3.6986604919579888e-08 0.75000000000000000 0.31250000000000000 0.74999934890121345 0.31247962591717915 
0.81250000000000000 0.31250000000000000 0.0000000000000000 -5.8596620926434841e-07 -2.1850921738946537e-05 0.16261106663898781 3.6613653066050456e-08 -4.7403668773845362e-08 0.81250000000000000 0.31250000000000000 0.81249941403379078 0.31247814907826105 
0.87500000000000000 0.31250000000000000 0.0000000000000000 -5.0596689397936986e-07 -2.3233866691701970e-05 0.13970843192661681 3.5704296457363965e-08 -5.6664858236437077e-08 0.87500000000000000 0.31250000000000000 0.87499949403310595 0.31247676613330833 
0.93750000000000000 0.31250000000000000 0.0000000000000000 -4.1968066779688997e-07 -2.4517232664665846e-05 0.11649569265526916 4.6211626824317016e-08 -6.2404087374560661e-08 0.93750000000000000 0.31250000000000000 0.93749958031933212 0.31247548276733533 
1.0000000000000000 0.31250000000000000 0.0000000000000000 -3.3993943669485964e-07 -2.5694625099971597e-05 0.094919074832228209 0.0000000000000000 -7.1137685007395068e-08 1.0000000000000000 0.31250000000000000 0.99999966006056329 0.31247430537490001 
0.062500000000000000 0.37500000000000000 0.0000000000000000 -7.9611516256225246e-09 -1.2016360434485720e-06 0.39231839843241395 -7.6686212901988039e-08 2.6453326929299558e-07 0.062500000000000000 0.37500000000000000 0.062499992038848373 0.37499879836395650 
0.0000000000000000 0.37500000000000000 0.0000000000000000 0.0000000000000000 0.0000000000000000 0.33211092125260538 0.0000000000000000 2.8192185028444093e-07 0.0000000000000000 0.37500000000000000 0.0000000000000000 0.37500000000000000 
0.12500000000000000 0.37500000000000000 0.0000000000000000 -7.9143276309226508e-09 -2.6644059244915677e-06 0.41060263432830335 5.8676795022201408e-09 2.4070419574074276e-07 0.12500000000000000 0.37500000000000000 0.12499999208567236 0.37499733559407550 
0.18750000000000000 0.37500000000000000 0.0000000000000000 -1.1880217766319723e-08 -4.3258299186468084e-06 0.40653346630116732 1.8303896730796945e-08 2.0427719187954882e-07 0.18750000000000000 0.37500000000000000 0.18749998811978227 0.37499567417008134 
0.25000000000000000 0.37500000000000000 0.0000000000000000 -2.2903814497159283e-08 -6.1212380899790358e-06 0.38909878439547413 3.6241728281277712e-08 1.6402491206794217e-07 0.25000000000000000 0.37500000000000000 0.24999997709618552 0.37499387876191004 
0.31250000000000000 0.37500000000000000 0.0000000000000000 -3.7286752080460760e-08 -7.9928937522557374e-06 0.36385496129875711 4.3548907198231725e-08 1.2290249327805057e-07 0.31250000000000000 0.37500000000000000 0.31249996271324793 0.37499200710624775 
0.37500000000000000 0.37500000000000000 0.0000000000000000 -4.7500953600224650e-08 -9.8933369418411002e-06 0.33550397947382526 4.5074803954071050e-08 8.5934721528754244e-08 0.37500000000000000 0.37500000000000000 0.37499995249904639 0.37499010666305815 
0.43750000000000000 0.37500000000000000 0.0000000000000000 -4.5439811208222402e-08 -1.1786412084337689e-05 0.30783298872264031 4.1698351157579366e-08 5.5596987865795221e-08 0.43750000000000000 0.37500000000000000 0.43749995456018881 0.37498821358791568 
0.50000000000000000 0.37500000000000000 0.0000000000000000 -2.5332635448098192e-08 -1.3646326140453997e-05 0.28281094434822068 3.6923841939550994e-08 3.1188648213605526e-08 0.50000000000000000 0.37500000000000000 0.49999997466736451 0.37498635367385957 
0.56250000000000000 0.37500000000000000 0.0000000000000000 1.5226976098802661e-08 -1.5455021893119513e-05 0.26080824273942604 3.2350434914751989e-08 1.0821064197760485e-08 0.56250000000000000 0.37500000000000000 0.56250001522697612 0.37498454497810690 
0.62500000000000000 0.37500000000000000 0.0000000000000000 7.6415046537662562e-08 -1.7199075125756540e-05 0.24149186966156680 2.8564941488369822e-08 -6.7045633353387920e-09 0.62500000000000000 0.37500000000000000 0.62500007641504662 0.37498280092487418 
0.68750000000000000 0.37500000000000000 0.0000000000000000 1.5714200694242107e-07 -1.8867891497767112e-05 0.22428059349246457 2.5842277808086746e-08 -2.2151289082092783e-08 0.68750000000000000 0.37500000000000000 0.68750015714200696 0.37498113210850231 
0.75000000000000000 0.37500000000000000 0.0000000000000000 2.5551325681433842e-07 -2.0452618730097092e-05 0.20841707941460830 2.4396009863956922e-08 -3.6099195389206978e-08 0.75000000000000000 0.37500000000000000 0.75000025551325677 0.37497954738126987 
0.81250000000000000 0.37500000000000000 0.0000000000000000 3.6880392607947585e-07 -2.1945283440709726e-05 0.19291531923686514 2.5210588672657184e-08 -4.8875579828790804e-08 0.81250000000000000 0.37500000000000000 0.81250036880392607 0.37497805471655932 
0.87500000000000000 0.37500000000000000 0.0000000000000000 4.9297889490918534e-07 -2.3337848111622557e-05 0.17658871328214423 2.5911508589154553e-08 -6.1222437829885296e-08 0.87500000000000000 0.37500000000000000 0.87500049297889493 0.37497666215188835 