# For a description of the Tecplot format see the Tecplot User's guide.
#
Variables=x,y,z,s_u,s_v,s_p,x,y,ref_u,ref_v,u,v
Zone f=fepoint, n=289, e=512, et=quadrilateral, c=black
0.00000 0.00000 0.00000 0.0000000000000000 0.0000000000000000 1.8695136178789138 0.0000000000000000 0.0000000000000000 0.0000000000000000 0.0000000000000000 0.0000000000000000 0.0000000000000000 
0.062500000000000000 0.0000000000000000 0.0000000000000000 -1.5647357393078920e-06 -3.2375236392917379e-06 1.5119235256733174 1.3030485136912318e-06 0.0000000000000000 0.062500000000000000 0.0000000000000000 0.062498435264260695 -3.2375236392917379e-06 
0.062500000000000000 0.062500000000000000 0.0000000000000000 -3.7509794474601746e-07 -2.0505096543118853e-06 1.5519642824755817 7.5564499348958988e-07 3.5968551854003015e-07 0.062500000000000000 0.062500000000000000 0.062499624902055247 0.062497949490345685 
0.0000000000000000 0.062500000000000000 0.0000000000000000 0.0000000000000000 0.0000000000000000 1.6260030245025099 0.0000000000000000 1.0263897107986889e-06 0.0000000000000000 0.062500000000000000 0.0000000000000000 0.062500000000000000 
0.12500000000000000 0.0000000000000000 0.0000000000000000 -2.6223030374461676e-06 -5.1422992180574926e-06 1.1043812258686163 4.5412737306669522e-07 0.0000000000000000 0.12500000000000000 0.0000000000000000 0.12499737769696255 -5.1422992180574926e-06 
0.12500000000000000 0.062500000000000000 0.0000000000000000 -1.3142627801652203e-06 -4.2065545335937674e-06 1.1834804074255392 4.6373159319635906e-07 -1.5364577926353621e-07 0.12500000000000000 0.062500000000000000 0.12499868573721984 0.062495793445466408 
0.18750000000000000 0.0000000000000000 0.0000000000000000 -3.4657767525230368e-06 -6.8054167002453856e-06 0.86016624692593846 3.1950402255904455e-07 0.0000000000000000 0.18750000000000000 0.0000000000000000 0.18749653422324744 -6.8054167002453856e-06 
0.18750000000000000 0.062500000000000000 0.0000000000000000 -2.1139406629113199e-06 -6.0452868205951046e-06 0.91116478414164659 3.5367284306218440e-07 -3.6489868809544959e-08 0.18750000000000000 0.062500000000000000 0.18749788605933707 0.062493954713179402 
0.25000000000000000 0.0000000000000000 0.0000000000000000 -4.1628971776037827e-06 -8.4032486899363968e-06 0.69312844220470027 2.3629265876295435e-07 0.0000000000000000 0.25000000000000000 0.0000000000000000 0.24999583710282239 -8.4032486899363968e-06 
0.25000000000000000 0.062500000000000000 0.0000000000000000 -2.7860784877379261e-06 -7.7765202472113469e-06 0.72773602982019148 2.4112815407771582e-07 -2.3507147839101986e-08 0.25000000000000000 0.062500000000000000 0.24999721392151228 0.062492223479752786 
0.31250000000000000 0.0000000000000000 0.0000000000000000 -4.7394373582822044e-06 -9.9817809204140374e-06 0.56365604355779231 1.9460666143888923e-07 0.0000000000000000 0.31250000000000000 0.0000000000000000 0.31249526056264171 -9.9817809204140374e-06 
0.31250000000000000 0.062500000000000000 0.0000000000000000 -3.3461661197679873e-06 -9.4662636224799067e-06 0.59143933768583945 1.9300592814153955e-07 -1.5648024976294159e-08 0.31250000000000000 0.062500000000000000 0.31249665383388026 0.062490533736377522 
0.37500000000000000 0.0000000000000000 0.0000000000000000 -5.2092333042326500e-06 -1.1551945130074992e-05 0.45539652732604158 1.6899704451765756e-07 0.0000000000000000 0.37500000000000000 0.0000000000000000 0.37499479076669578 -1.1551945130074992e-05 
0.37500000000000000 0.062500000000000000 0.0000000000000000 -3.8066075685436546e-06 -1.1133719472047799e-05 0.48110241731476644 1.6191845052477654e-07 -1.9697310166956607e-08 0.37500000000000000 0.062500000000000000 0.37499619339243145 0.062488866280527959 
0.43750000000000000 0.0000000000000000 0.0000000000000000 -5.5824720217522910e-06 -1.3112054556848924e-05 0.36165452608917770 1.4903982330038391e-07 0.0000000000000000 0.43750000000000000 0.0000000000000000 0.43749441752797824 -1.3112054556848924e-05 
0.43750000000000000 0.062500000000000000 0.0000000000000000 -4.1778954264291751e-06 -1.2780455751502667e-05 0.38728544935170461 1.3973880180299319e-07 -2.7842620349632544e-08 0.43750000000000000 0.062500000000000000 0.43749582210457355 0.062487219544248497 
0.50000000000000000 0.0000000000000000 0.0000000000000000 -5.8684984641628270e-06 -1.4655469447573011e-05 0.27981077117864728 1.3095345382153074e-07 0.0000000000000000 0.50000000000000000 0.0000000000000000 0.49999413150153577 -1.4655469447573011e-05 
0.50000000000000000 0.062500000000000000 0.0000000000000000 -4.4695523275729305e-06 -1.4400953323557417e-05 0.30595473642429899 1.2129558331316740e-07 -3.7143272313877248e-08 0.50000000000000000 0.062500000000000000 0.49999553044767248 0.062485599046676443 
0.56250000000000000 0.0000000000000000 0.0000000000000000 -6.0768793004787338e-06 -1.6173880090673288e-05 0.20897064791927430 1.1306664074728659e-07 0.0000000000000000 0.56250000000000000 0.0000000000000000 0.56249392312069957 -1.6173880090673288e-05 
0.56250000000000000 0.062500000000000000 0.0000000000000000 -4.6907211565442965e-06 -1.5987095548880817e-05 0.23545137722946816 1.0434247649268634e-07 -4.5702771571577686e-08 0.56250000000000000 0.062500000000000000 0.56249530927884350 0.062484012904451110 
0.62500000000000000 0.0000000000000000 0.0000000000000000 -6.2178483277308205e-06 -1.7659009474378186e-05 0.14894718442118424 9.4679971966546873e-08 0.0000000000000000 0.62500000000000000 0.0000000000000000 0.62499378215167223 -1.7659009474378186e-05 
0.62500000000000000 0.062500000000000000 0.0000000000000000 -4.8505137034724833e-06 -1.7530381685457207e-05 0.17512509421727515 8.7977180160682916e-08 -5.2248088162189446e-08 0.62500000000000000 0.062500000000000000 0.62499514948629653 0.062482469618314544 
0.68750000000000000 0.0000000000000000 0.0000000000000000 -6.3025322022584398e-06 -1.9103713081799385e-05 0.099781749615275570 7.5762888462985912e-08 0.0000000000000000 0.68750000000000000 0.0000000000000000 0.68749369746779776 -1.9103713081799385e-05 
0.68750000000000000 0.062500000000000000 0.0000000000000000 -4.9582237227078389e-06 -1.9023242023182285e-05 0.12468967426899218 7.2036698285349546e-08 -5.5735602150835732e-08 0.68750000000000000 0.062500000000000000 0.68749504177627729 0.062480976757976821 
0.75000000000000000 0.0000000000000000 0.0000000000000000 -6.3430934754169185e-06 -2.0502931919873733e-05 0.061468508185724413 5.6045882832259812e-08 0.0000000000000000 0.75000000000000000 0.0000000000000000 0.74999365690652453 -2.0502931919873733e-05 
0.75000000000000000 0.062500000000000000 0.0000000000000000 -5.0234757584257736e-06 -2.0460082615789942e-05 0.083883141006333817 5.6500559056601699e-08 -5.5222286565548442e-08 0.75000000000000000 0.062500000000000000 0.74999497652424152 0.062479539917384204 
0.81250000000000000 0.0000000000000000 0.0000000000000000 -6.3527912495708607e-06 -2.1854783766986812e-05 0.033760035220064648 3.7494882274794840e-08 0.0000000000000000 0.81250000000000000 0.0000000000000000 0.81249364720875039 -2.1854783766986812e-05 
0.81250000000000000 0.062500000000000000 0.0000000000000000 -5.0563548713967747e-06 -2.1838429594183563e-05 0.052279786964273899 4.2692591523760384e-08 -4.9747996839166667e-08 0.81250000000000000 0.062500000000000000 0.81249494364512864 0.062478161570405817 
0.87500000000000000 0.0000000000000000 0.0000000000000000 -6.3458031092280565e-06 -2.3161967460379042e-05 0.015972829479034143 1.7337343438446675e-08 0.0000000000000000 0.87500000000000000 0.0000000000000000 0.87499365419689079 -2.3161967460379042e-05 
0.87500000000000000 0.062500000000000000 0.0000000000000000 -5.0675283283973580e-06 -2.3160443216177316e-05 0.029221462649476112 2.8239249315455311e-08 -3.8831074988378721e-08 0.87500000000000000 0.062500000000000000 0.87499493247167159 0.062476839556783827 
0.93750000000000000 0.0000000000000000 0.0000000000000000 -6.3362947791191348e-06 -2.4433290613060924e-05 0.0067414158605929933 5.9625941917864554e-09 0.0000000000000000 0.93750000000000000 0.0000000000000000 0.93749366370522091 -2.4433290613060924e-05 
0.93750000000000000 0.062500000000000000 0.0000000000000000 -5.0682977809488042e-06 -2.4434985167944422e-05 0.013959367471575087 2.3415112407278304e-08 -2.3191753220349289e-08 0.93750000000000000 0.062500000000000000 0.93749493170221909 0.062475565014832056 
1.0000000000000000 0.0000000000000000 0.0000000000000000 -6.3341433783472865e-06 -2.5682053962818388e-05 0.0034276717119785748 0.0000000000000000 0.0000000000000000 1.0000000000000000 0.0000000000000000 0.99999366585662164 -2.5682053962818388e-05 
1.0000000000000000 0.062500000000000000 0.0000000000000000 -5.0700404995475155e-06 -2.5679937741681245e-05 0.0067600536178756519 0.0000000000000000 -6.1302737874512008e-09 1.0000000000000000 0.062500000000000000 0.99999492995950046 0.062474320062258316 
0.062500000000000000 0.12500000000000000 0.0000000000000000 -1.6899916703702057e-07 -1.6066364061462724e-06 1.2828684388826130 9.5547176183454252e-08 4.5113055389464428e-07 0.062500000000000000 0.12500000000000000 0.062499831000832957 0.12499839336359385 
0.0000000000000000 0.12500000000000000 0.0000000000000000 0.0000000000000000 0.0000000000000000 1.2493563270419965 0.0000000000000000 5.9306985746025485e-07 0.0000000000000000 0.12500000000000000 0.0000000000000000 0.12500000000000000 
0.12500000000000000 0.12500000000000000 0.0000000000000000 -6.0855478656117095e-07 -3.4495746036437644e-06 1.1168254061260301 3.8065699449338740e-07 2.6240608715223429e-07 0.12500000000000000 0.12500000000000000 0.12499939144521344 0.12499655042539635 
0.18750000000000000 0.12500000000000000 0.0000000000000000 -1.2157845942849676e-06 -5.3631188455087009e-06 0.89304068021057204 3.4076349360213387e-07 9.6500169150394182e-08 0.18750000000000000 0.12500000000000000 0.18749878421540569 0.12499463688115449 
0.25000000000000000 0.12500000000000000 0.0000000000000000 -1.7786549484780424e-06 -7.1955612229215917e-06 0.71589235220589964 2.3342678096597298e-07 5.3979893672934391e-08 0.25000000000000000 0.12500000000000000 0.24999822134505154 0.12499280443877710 
0.31250000000000000 0.12500000000000000 0.0000000000000000 -2.2668275449910222e-06 -8.9812333292763807e-06 0.58348298262275133 1.8429518185458683e-07 3.9168773684246948e-08 0.31250000000000000 0.12500000000000000 0.31249773317245499 0.12499101876667072 
0.37500000000000000 0.12500000000000000 0.0000000000000000 -2.6767270760169857e-06 -1.0735864453428205e-05 0.47897180732564482 1.4996913206530273e-07 2.2753818434055967e-08 0.37500000000000000 0.12500000000000000 0.37499732327292401 0.12498926413554658 
0.43750000000000000 0.12500000000000000 0.0000000000000000 -3.0119731375370600e-06 -1.2461111082625684e-05 0.39208425701622973 1.2777698615448853e-07 7.4119085044556152e-09 0.43750000000000000 0.12500000000000000 0.43749698802686249 0.12498753888891738 
0.50000000000000000 0.12500000000000000 0.0000000000000000 -3.2785128872573069e-06 -1.4151804871502895e-05 0.31772702975449851 1.1040746933688693e-07 -7.1605808938415146e-09 0.50000000000000000 0.12500000000000000 0.49999672148711266 0.12498584819512849 
0.56250000000000000 0.12500000000000000 0.0000000000000000 -3.4831145407495492e-06 -1.5800017834052057e-05 0.25347272601999510 9.5470544604987799e-08 -2.0002870389899594e-08 0.56250000000000000 0.12500000000000000 0.56249651688545921 0.12498419998216594 
0.62500000000000000 0.12500000000000000 0.0000000000000000 -3.6328695777661968e-06 -1.7397269192069270e-05 0.19811028940790901 8.1839577361511648e-08 -3.0452261452855671e-08 0.62500000000000000 0.12500000000000000 0.62499636713042228 0.12498260273080793 
0.68750000000000000 0.12500000000000000 0.0000000000000000 -3.7350714132622261e-06 -1.8935853887232288e-05 0.15088953628596968 6.9312211829603765e-08 -3.7881800114491687e-08 0.68750000000000000 0.12500000000000000 0.68749626492858684 0.12498106414611276 
0.75000000000000000 0.12500000000000000 0.0000000000000000 -3.7972937451728719e-06 -2.0409845711636691e-05 0.11112380745972959 5.7754572402050084e-08 -4.1737690320708095e-08 0.75000000000000000 0.12500000000000000 0.74999620270625478 0.12497959015428838 
0.81250000000000000 0.12500000000000000 0.0000000000000000 -3.8276552782361650e-06 -2.1816116884301685e-05 0.078015857263492513 4.8614401470070655e-08 -4.1360174935317508e-08 0.81250000000000000 0.12500000000000000 0.81249617234472182 0.12497818388311570 
0.87500000000000000 0.12500000000000000 0.0000000000000000 -3.8353214957178927e-06 -2.3155628353348670e-05 0.050729328851245981 3.7945139235284565e-08 -3.6784560272260709e-08 0.87500000000000000 0.12500000000000000 0.87499616467850416 0.12497684437164665 
0.93750000000000000 0.12500000000000000 0.0000000000000000 -3.8313253670380380e-06 -2.4435247429835642e-05 0.029051090100455718 3.8262877699445801e-08 -2.7320011509129977e-08 0.93750000000000000 0.12500000000000000 0.93749616867463292 0.12497556475257017 
1.0000000000000000 0.12500000000000000 0.0000000000000000 -3.8297046142363416e-06 -2.5670631263340022e-05 0.015976364541467860 0.0000000000000000 -1.7851519057797361e-08 1.0000000000000000 0.12500000000000000 0.99999617029538579 0.12497432936873666 
0.062500000000000000 0.18750000000000000 0.0000000000000000 -8.9832552609913099e-08 -1.3830962151569417e-06 1.0020871033451511 1.9665340932869916e-08 4.1068813670675386e-07 0.062500000000000000 0.18750000000000000 0.062499910167447388 0.18749861690378486 
0.0000000000000000 0.18750000000000000 0.0000000000000000 0.0000000000000000 0.0000000000000000 0.94835468720624394 0.0000000000000000 4.6479556485338737e-07 0.0000000000000000 0.18750000000000000 0.0000000000000000 0.18750000000000000 
0.12500000000000000 0.18750000000000000 0.0000000000000000 -3.1935101642708067e-07 -3.0395668053756598e-06 0.93741674058852820 1.8449446545704448e-07 3.2388208801908690e-07 0.12500000000000000 0.18750000000000000 0.12499968064898358 0.18749696043319464 
0.18750000000000000 0.18750000000000000 0.0000000000000000 -6.6838117505065991e-07 -4.8559027796663138e-06 0.80932482295583374 2.2910148615124723e-07 1.7785355066825813e-07 0.18750000000000000 0.18750000000000000 0.18749933161882495 0.18749514409722035 
0.25000000000000000 0.18750000000000000 0.0000000000000000 -1.0719773804626688e-06 -6.7222190790695152e-06 0.67034527185351012 2.0415998483678291e-07 9.6716735193592672e-08 0.25000000000000000 0.18750000000000000 0.24999892802261955 0.18749327778092093 
0.31250000000000000 0.18750000000000000 0.0000000000000000 -1.4502247607694281e-06 -8.5709531022394716e-06 0.55428483928506667 1.6357058936158994e-07 6.2737213687952199e-08 0.31250000000000000 0.18750000000000000 0.31249854977523922 0.18749142904689775 
0.37500000000000000 0.18750000000000000 0.0000000000000000 -1.7787090544025302e-06 -1.0393309727007885e-05 0.46126800049514077 1.3196965194905543e-07 3.9180840585139645e-08 0.37500000000000000 0.18750000000000000 0.37499822129094568 0.18748960669027295 
0.43750000000000000 0.18750000000000000 0.0000000000000000 -2.0510828833083056e-06 -1.2183785418095596e-05 0.38474192204659730 1.1103182084379599e-07 2.0230086389669087e-08 0.43750000000000000 0.18750000000000000 0.43749794891711674 0.18748781621458191 
0.50000000000000000 0.18750000000000000 0.0000000000000000 -2.2679453386896685e-06 -1.3934806727167821e-05 0.31996754167588892 9.5094689591196217e-08 3.0522564827864402e-09 0.50000000000000000 0.18750000000000000 0.49999773205466130 0.18748606519327282 
0.56250000000000000 0.18750000000000000 0.0000000000000000 -2.4327731799749828e-06 -1.5637558677674543e-05 0.26422775851898761 8.2261543828624482e-08 -1.2048044665886404e-08 0.56250000000000000 0.18750000000000000 0.56249756722681987 0.18748436244132230 
0.62500000000000000 0.18750000000000000 0.0000000000000000 -2.5502846607913670e-06 -1.7283181323909155e-05 0.21596169441855775 7.1278630568825234e-08 -2.4809650226754260e-08 0.62500000000000000 0.18750000000000000 0.62499744971533922 0.18748271681867609 
0.68750000000000000 0.18750000000000000 0.0000000000000000 -2.6258143939146502e-06 -1.8863681205521552e-05 0.17409609995146499 6.1904128989892727e-08 -3.4838851824414753e-08 0.68750000000000000 0.18750000000000000 0.68749737418560608 0.18748113631879448 
0.75000000000000000 0.18750000000000000 0.0000000000000000 -2.6652153840050168e-06 -2.0372651039710732e-05 0.13764463903423374 5.3988355059189356e-08 -4.1814741038752969e-08 0.75000000000000000 0.18750000000000000 0.74999733478461594 0.18747962734896029 
0.81250000000000000 0.18750000000000000 0.0000000000000000 -2.6751547820806993e-06 -2.1805965442618512e-05 0.10553806355120066 4.8902472728339896e-08 -4.5267263605369351e-08 0.81250000000000000 0.18750000000000000 0.81249732484521797 0.18747819403455737 
0.87500000000000000 0.18750000000000000 0.0000000000000000 -2.6638140570222442e-06 -2.3162602920686490e-05 0.076764213856764810 4.2210158615944303e-08 -4.5373234267129615e-08 0.87500000000000000 0.18750000000000000 0.87499733618594300 0.18747683739707932 
0.93750000000000000 0.18750000000000000 0.0000000000000000 -2.6420773503707449e-06 -2.4445757277871464e-05 0.051352627841912524 4.7477075135263919e-08 -4.0495963925805144e-08 0.93750000000000000 0.18750000000000000 0.93749735792264965 0.18747555424272214 
1.0000000000000000 0.18750000000000000 0.0000000000000000 -2.6252429845765964e-06 -2.5664640352533708e-05 0.033533909955297696 0.0000000000000000 -3.7676108574137627e-08 1.0000000000000000 0.18750000000000000 0.99999737475701556 0.18747433535964744 
0.062500000000000000 0.25000000000000000 0.0000000000000000 -4.9303994270801238e-08 -1.2686818425736747e-06 0.76572816973228519 -3.5255383947594896e-08 3.3708515591779123e-07 0.062500000000000000 0.25000000000000000 0.062499950696005731 0.24999873131815739 
0.0000000000000000 0.25000000000000000 0.0000000000000000 0.0000000000000000 0.0000000000000000 0.70827472563189442 0.0000000000000000 3.6947187587600530e-07 0.0000000000000000 0.25000000000000000 0.0000000000000000 0.25000000000000000 
0.12500000000000000 0.25000000000000000 0.0000000000000000 -1.6642772161863216e-07 -2.8144560311760539e-06 0.74499185937344459 8.8882879485799164e-08 2.9467542855106092e-07 0.12500000000000000 0.25000000000000000 0.12499983357227838 0.24999718554396885 
0.18750000000000000 0.25000000000000000 0.0000000000000000 -3.5494870439369016e-07 -4.5505503698091290e-06 0.67969283494741628 1.2628002765474962e-07 2.2196170147168704e-07 0.18750000000000000 0.25000000000000000 0.18749964505129560 0.24999544944963017 
0.25000000000000000 0.25000000000000000 0.0000000000000000 -5.9307549085064746e-07 -6.3900243171009628e-06 0.59271868773223557 1.4559393149943923e-07 1.4760365004775863e-07 0.25000000000000000 0.25000000000000000 0.24999940692450914 0.24999360997568290 
0.31250000000000000 0.25000000000000000 0.0000000000000000 -8.4304393456386034e-07 -8.2645440195940157e-06 0.50576608156527292 1.2937127279297642e-07 9.2520551567041506e-08 0.31250000000000000 0.25000000000000000 0.31249915695606539 0.24999173545598041 
0.37500000000000000 0.25000000000000000 0.0000000000000000 -1.0703314873039602e-06 -1.0131433359841413e-05 0.43053153324591675 1.0839484390550076e-07 5.9551354290215532e-08 0.37500000000000000 0.25000000000000000 0.37499892966851261 0.24998986856664016 
0.43750000000000000 0.25000000000000000 0.0000000000000000 -1.2605578432530665e-06 -1.1971337143122759e-05 0.36749672660261873 9.1272194977995121e-08 3.5358964912593126e-08 0.43750000000000000 0.25000000000000000 0.43749873944215673 0.24998802866285688 
0.50000000000000000 0.25000000000000000 0.0000000000000000 -1.4092830510465305e-06 -1.3771070283308154e-05 0.31418632365617782 7.7912986888680995e-08 1.5381555600780381e-08 0.50000000000000000 0.25000000000000000 0.49999859071694891 0.24998622892971670 
0.56250000000000000 0.25000000000000000 0.0000000000000000 -1.5167419717675617e-06 -1.5519446930739936e-05 0.26841717380138491 6.7443100034050257e-08 -1.6938473521887771e-09 0.56250000000000000 0.25000000000000000 0.56249848325802809 0.24998448055306929 
0.62500000000000000 0.25000000000000000 0.0000000000000000 -1.5853692154655273e-06 -1.7206538091822057e-05 0.22865955080594688 5.8917506191585882e-08 -1.6328075833395052e-08 0.62500000000000000 0.25000000000000000 0.62499841463078454 0.24998279346190819 
0.68750000000000000 0.25000000000000000 0.0000000000000000 -1.6187124402519579e-06 -1.8823716798838176e-05 0.19374636796348224 5.2165009867326312e-08 -2.8553698861074370e-08 0.68750000000000000 0.25000000000000000 0.68749838128755980 0.24998117628320116 
0.75000000000000000 0.25000000000000000 0.0000000000000000 -1.6211163565261572e-06 -2.0363854739168920e-05 0.16257211007368882 4.7065500730315935e-08 -3.8383436688734666e-08 0.75000000000000000 0.25000000000000000 0.74999837888364340 0.24997963614526084 
0.81250000000000000 0.25000000000000000 0.0000000000000000 -1.5979508158503711e-06 -2.1821542013292233e-05 0.13394082276065564 4.4903299473215332e-08 -4.5618951207920086e-08 0.81250000000000000 0.25000000000000000 0.81249840204918400 0.24997817845798667 
0.87500000000000000 0.25000000000000000 0.0000000000000000 -1.5563364287469416e-06 -2.3193317100904708e-05 0.10671077409202784 4.1361541477572527e-08 -5.0637672946280864e-08 0.87500000000000000 0.25000000000000000 0.87499844366357127 0.24997680668289909 
0.93750000000000000 0.25000000000000000 0.0000000000000000 -1.5064020593512225e-06 -2.4477913852777756e-05 0.080869811447482537 4.9905556619778833e-08 -5.1455137509160075e-08 0.93750000000000000 0.25000000000000000 0.93749849359794080 0.24997552208614723 
1.0000000000000000 0.25000000000000000 0.0000000000000000 -1.4629845284016709e-06 -2.5676588696425730e-05 0.060212328480780147 0.0000000000000000 -5.4339892324777023e-08 1.0000000000000000 0.25000000000000000 0.99999853701547148 0.24997432341130357 
0.062500000000000000 0.31250000000000000 0.0000000000000000 -2.5095514562057661e-08 -1.2163384231493773e-06 0.56621048013339426 -6.0743312039994775e-08 2.9328781340138536e-07 0.062500000000000000 0.31250000000000000 0.062499974904485438 0.31249878366157685 
0.0000000000000000 0.31250000000000000 0.0000000000000000 0.0000000000000000 0.0000000000000000 0.50740356695925570 0.0000000000000000 3.1276365249593807e-07 0.0000000000000000 0.31250000000000000 0.0000000000000000 0.31250000000000000 
0.12500000000000000 0.31250000000000000 0.0000000000000000 -7.3183135528455810e-08 -2.7027073287977461e-06 0.56937834566681655 3.9659125564261713e-08 2.6561325954341380e-07 0.12500000000000000 0.31250000000000000 0.12499992681686446 0.31249729729267123 
0.18750000000000000 0.31250000000000000 0.0000000000000000 -1.5512812470189929e-07 -4.3881961338603263e-06 0.54117934455347450 6.2357781753994314e-08 2.1730324164047507e-07 0.18750000000000000 0.31250000000000000 0.18749984487187529 0.31249561180386615 
0.25000000000000000 0.31250000000000000 0.0000000000000000 -2.6607333352369799e-07 -6.1999754524802713e-06 0.49474688769981973 8.3365831840765502e-08 1.6362863565641982e-07 0.25000000000000000 0.31250000000000000 0.24999973392666644 0.31249380002454746 
0.31250000000000000 0.31250000000000000 0.0000000000000000 -3.9020891535386398e-07 -8.0752994822061831e-06 0.44088598993093092 8.6098727153346962e-08 1.1350929792259029e-07 0.31250000000000000 0.31250000000000000 0.31249960979108465 0.31249192470051779 
0.37500000000000000 0.31250000000000000 0.0000000000000000 -5.0811520026615832e-07 -9.9660732085364492e-06 0.38845370232026449 7.8717016061270335e-08 7.5170857691533358e-08 0.37500000000000000 0.31250000000000000 0.37499949188479981 0.31249003392679148 
0.43750000000000000 0.31250000000000000 0.0000000000000000 -6.0454178690928707e-07 -1.1839807722964005e-05 0.34197464762196161 6.8073524028562201e-08 4.6723596459422709e-08 0.43750000000000000 0.31250000000000000 0.43749939545821309 0.31248816019227704 
0.50000000000000000 0.31250000000000000 0.0000000000000000 -6.7249548803059331e-07 -1.3676146388130734e-05 0.30191560065354300 5.8586199739839359e-08 2.4199697881886799e-08 0.50000000000000000 0.31250000000000000 0.49999932750451198 0.31248632385361180 
0.56250000000000000 0.31250000000000000 0.0000000000000000 -7.1000123706721822e-07 -1.5460433600453225e-05 0.26735787346173767 5.0829379412477890e-08 5.3236261551735724e-09 0.56250000000000000 0.31250000000000000 0.56249928999876297 0.31248453956639954 
0.62500000000000000 0.31250000000000000 0.0000000000000000 -7.1773875627838289e-07 -1.7181067760288415e-05 0.23723861474973440 4.4642533584860241e-08 -1.0909592653009361e-08 0.62500000000000000 0.31250000000000000 0.62499928226124368 0.31248281893223973 
0.68750000000000000 0.31250000000000000 0.0000000000000000 -6.9779073148682939e-07 -1.8828479335322600e-05 0.21056463326573782 4.0048410407457888e-08 -2.4950659880989697e-08 0.68750000000000000 0.31250000000000000 0.68749930220926847 0.31248117152066474 
0.75000000000000000 0.31250000000000000 0.0000000000000000 -6.5317490003582214e-07 -2.0394661396555415e-05 0.18630683662710898 3.7043467696303106e-08 -3.7113721133546640e-08 0.75000000000000000 0.31250000000000000 0.74999934682509994 0.31247960533860347 
0.81250000000000000 0.31250000000000000 0.0000000000000000 -5.8796139392671847e-07 -2.1872835899515641e-05 0.16329562890074198 3.6806847376536580e-08 -4.7460533942339246e-08 0.81250000000000000 0.31250000000000000 0.81249941203860609 0.31247812716410056 
0.87500000000000000 0.31250000000000000 0.0000000000000000 -5.0790513973241059e-07 -2.3257067955561965e-05 0.14032783941773727 3.5638721122054681e-08 -5.6524298747791536e-08 0.87500000000000000 0.31250000000000000 0.87499949209486017 0.31247674293204447 
0.93750000000000000 0.31250000000000000 0.0000000000000000 -4.2158291124247760e-07 -2.4541684316008981e-05 0.11712127491032641 4.6157110523645915e-08 -6.2095803874590981e-08 0.93750000000000000 0.31250000000000000 0.93749957841708886 0.31247545831568407 
1.0000000000000000 0.31250000000000000 0.0000000000000000 -3.4183426494897643e-07 -2.5720310724718353e-05 0.095645376069274632 0.0000000000000000 -6.9864463099678157e-08 1.0000000000000000 0.31250000000000000 0.99999965816573511 0.31247427968927527 
0.062500000000000000 0.37500000000000000 0.0000000000000000 -8.8488605506920753e-09 -1.2028366541709964e-06 0.39143443415751938 -8.0435729073428124e-08 2.6414104805087960e-07 0.062500000000000000 0.37500000000000000 0.062499991151139446 0.37499879716334578 
0.0000000000000000 0.37500000000000000 0.0000000000000000 0.0000000000000000 0.0000000000000000 0.33052966402586065 0.0000000000000000 2.8004253773592716e-07 0.0000000000000000 0.37500000000000000 0.0000000000000000 0.37500000000000000 
0.12500000000000000 0.37500000000000000 0.0000000000000000 -9.3148238875214605e-09 -2.6672599951518926e-06 0.41138121613853640 3.7507828958964863e-09 2.4060547214759832e-07 0.12500000000000000 0.37500000000000000 0.12499999068517610 0.37499733274000485 
0.18750000000000000 0.37500000000000000 0.0000000000000000 -1.3498617135381897e-08 -4.3305945890899814e-06 0.40839888566344218 1.7093393046487212e-08 2.0444750392027348e-07 0.18750000000000000 0.37500000000000000 0.18749998650138286 0.37499566940541090 
0.25000000000000000 0.37500000000000000 0.0000000000000000 -2.4552681819704573e-08 -6.1280078892624639e-06 0.39142152974971872 3.6004203582352176e-08 1.6413372467714216e-07 0.25000000000000000 0.37500000000000000 0.24999997544731814 0.37499387199211082 
0.31250000000000000 0.37500000000000000 0.0000000000000000 -3.8850280162857639e-08 -8.0016424492976269e-06 0.36622540010132076 4.3694453380124249e-08 1.2296404637415999e-07 0.31250000000000000 0.37500000000000000 0.31249996114971984 0.37499199835755070 
0.37500000000000000 0.37500000000000000 0.0000000000000000 -4.8906260805761186e-08 -9.9039875085624201e-06 0.33772880056153892 4.5416252130475217e-08 8.5966848898263838e-08 0.37500000000000000 0.37500000000000000 0.37499995109373918 0.37499009601249145 
0.43750000000000000 0.37500000000000000 0.0000000000000000 -4.6660594932188491e-08 -1.1798885116951344e-05 0.30982752678588560 4.2116257487774395e-08 5.5583952324382617e-08 0.43750000000000000 0.37500000000000000 0.43749995333940506 0.37498820111488307 
0.50000000000000000 0.37500000000000000 0.0000000000000000 -2.6380393559317019e-08 -1.3660546739216890e-05 0.28454654423405840 3.7345183523095596e-08 3.1117619073683418e-08 0.50000000000000000 0.37500000000000000 0.49999997361960652 0.37498633945326082 
0.56250000000000000 0.37500000000000000 0.0000000000000000 1.4333842593923974e-08 -1.5470907702695487e-05 0.26229515462253744 3.2732359700953357e-08 1.0718351896150189e-08 0.56250000000000000 0.37500000000000000 0.56250001433384256 0.37498452909229729 
0.62500000000000000 0.37500000000000000 0.0000000000000000 7.5661466112129482e-08 -1.7216541187767007e-05 0.24275500421255333 2.8901700626522408e-08 -6.8163998580663921e-09 0.62500000000000000 0.37500000000000000 0.62500007566146609 0.37498278345881225 
0.68750000000000000 0.37500000000000000 0.0000000000000000 1.5651459938042441e-07 -1.8886855418932728e-05 0.22534125242555722 2.6154607115987774e-08 -2.2254900637447298e-08 0.68750000000000000 0.37500000000000000 0.68750015651459939 0.37498111314458105 
0.75000000000000000 0.37500000000000000 0.0000000000000000 2.5499467223244182e-07 -2.0473002317117691e-05 0.20928525173685295 2.4680995151761225e-08 -3.6167165562017397e-08 0.75000000000000000 0.37500000000000000 0.75000025499467238 0.37497952699768294 
0.81250000000000000 0.37500000000000000 0.0000000000000000 3.6836642923618669e-07 -2.1967012255025460e-05 0.19359001916866084 2.5548314452708256e-08 -4.8867145795378483e-08 0.81250000000000000 0.37500000000000000 0.81250036836642925 0.37497803298774496 
0.87500000000000000 0.37500000000000000 0.0000000000000000 4.9257863297600033e-07 -2.3360850962340107e-05 0.17706845081010200 2.6071172755339713e-08 -6.0986321504611753e-08 0.87500000000000000 0.37500000000000000 0.87500049257863299 0.37497663914903767 