# For a description of the Tecplot format see the Tecplot User's guide.
#
Variables=x,y,z,s_u,s_v,s_p,x,y,ref_u,ref_v,u,v
Zone f=fepoint, n=9409, e=18432, et=quadrilateral, c=black
0.00000 0.00000 0.00000 0.0000000000000000 0.0000000000000000 3.8428806975710956 0.0000000000000000 0.0000000000000000 0.0000000000000000 0.0000000000000000 0.0000000000000000 0.0000000000000000 
0.010416666666666666 0.0000000000000000 0.0000000000000000 -5.5268812893413339e-07 -1.1986813169248169e-06 3.2609556964084425 1.1895213658222945e-05 0.0000000000000000 0.010416666666666666 0.0000000000000000 0.010416113978537731 -1.1986813169248169e-06 
0.010416666666666666 0.010416666666666666 0.0000000000000000 -1.4523714301065465e-07 -7.7815537583577517e-07 3.3989101019800807 7.4891650120490482e-06 1.8809005779593090e-06 0.010416666666666666 0.010416666666666666 0.010416521429523656 0.010415888511290829 
0.0000000000000000 0.010416666666666666 0.0000000000000000 0.0000000000000000 0.0000000000000000 3.5970450057509531 0.0000000000000000 6.5544635750661645e-06 0.0000000000000000 0.010416666666666666 0.0000000000000000 0.010416666666666666 
0.020833333333333332 0.0000000000000000 0.0000000000000000 -9.0721740471776227e-07 -1.8566840218396266e-06 2.5751444318940262 5.6351356760857416e-06 0.0000000000000000 0.020833333333333332 0.0000000000000000 0.020832426115928615 -1.8566840218396266e-06 
0.020833333333333332 0.010416666666666666 0.0000000000000000 -4.8960722351851872e-07 -1.5171588414919990e-06 2.7742892533276566 4.9203061516688360e-06 -2.4093620267619721e-06 0.020833333333333332 0.010416666666666666 0.020832843726109815 0.010415149507825175 
0.031250000000000000 0.0000000000000000 0.0000000000000000 -1.1907150172197274e-06 -2.3688804042130008e-06 2.1298468701268933 3.3727248120193277e-06 0.0000000000000000 0.031250000000000000 0.0000000000000000 0.031248809284982779 -2.3688804042130008e-06 
0.031250000000000000 0.010416666666666666 0.0000000000000000 -7.9127727353751312e-07 -2.0812608993132879e-06 2.2877555198770771 3.7755335251903313e-06 -1.7190344674130996e-06 0.031250000000000000 0.010416666666666666 0.031249208722726463 0.010414585405767353 
0.041666666666666664 0.0000000000000000 0.0000000000000000 -1.4377843602126923e-06 -2.8110614100162004e-06 1.8462940466752906 2.1883026911258661e-06 0.0000000000000000 0.041666666666666664 0.0000000000000000 0.041665228882306449 -2.8110614100162004e-06 
0.041666666666666664 0.010416666666666666 0.0000000000000000 -1.0601263686536199e-06 -2.5566150149594548e-06 1.9617473265481273 2.4910574311834839e-06 -1.4194021123614846e-06 0.041666666666666664 0.010416666666666666 0.041665606540298002 0.010414110051651706 
0.052083333333333336 0.0000000000000000 0.0000000000000000 -1.6626401557742915e-06 -3.2107122299891204e-06 1.6552162419216074 1.4944371403114753e-06 0.0000000000000000 0.052083333333333336 0.0000000000000000 0.052081670693177561 -3.2107122299891204e-06 
0.052083333333333336 0.010416666666666666 0.0000000000000000 -1.3047865317620886e-06 -2.9790208324893864e-06 1.7403106808204294 1.7395821190860595e-06 -1.0704255773882817e-06 0.052083333333333336 0.010416666666666666 0.052082028546801572 0.010413687645834177 
0.062500000000000000 0.0000000000000000 0.0000000000000000 -1.8721986488256181e-06 -3.5816009504579589e-06 1.5190867380659494 1.0887829026669545e-06 0.0000000000000000 0.062500000000000000 0.0000000000000000 0.062498127801351173 -3.5816009504579589e-06 
0.062500000000000000 0.010416666666666666 0.0000000000000000 -1.5309800861360792e-06 -3.3665546097626520e-06 1.5835068484929280 1.2729283187122560e-06 -8.2863792925428474e-07 0.062500000000000000 0.010416666666666666 0.062498469019913856 0.010413300112056904 
0.072916666666666671 0.0000000000000000 0.0000000000000000 -2.0702431482817443e-06 -3.9317812057989017e-06 1.4167058220413418 8.3842528157521553e-07 0.0000000000000000 0.072916666666666671 0.0000000000000000 0.072914596423518385 -3.9317812057989017e-06 
0.072916666666666671 0.010416666666666666 0.0000000000000000 -1.7426067723659981e-06 -3.7295946533350975e-06 1.4668914067263075 9.7471989245408390e-07 -6.4993135479680012e-07 0.072916666666666671 0.010416666666666666 0.072914924059894304 0.010412937072013332 
0.083333333333333329 0.0000000000000000 0.0000000000000000 -2.2590463819485849e-06 -4.2664556717069332e-06 1.3359123211224899 6.7632986361844088e-07 0.0000000000000000 0.083333333333333329 0.0000000000000000 0.083331074286951384 -4.2664556717069332e-06 
0.083333333333333329 0.010416666666666666 0.0000000000000000 -1.9423925229667217e-06 -4.0746623031778645e-06 1.3760488849473891 7.7820865681866790e-07 -5.1838131083328110e-07 0.083333333333333329 0.010416666666666666 0.083331390940810365 0.010412592004363489 
0.093750000000000000 0.0000000000000000 0.0000000000000000 -2.4400788609996015e-06 -4.5892090275889097e-06 1.2695291475680630 5.6658533570211542e-07 0.0000000000000000 0.093750000000000000 0.0000000000000000 0.093747559921138993 -4.5892090275889097e-06 
0.093750000000000000 0.010416666666666666 0.0000000000000000 -2.1322888302326506e-06 -4.4061265877742771e-06 1.3023629029886135 6.4386921018447562e-07 -4.1947450304995182e-07 0.093750000000000000 0.010416666666666666 0.093747867711169761 0.010412260540078893 
0.10416666666666667 0.0000000000000000 0.0000000000000000 -2.6143506482086590e-06 -4.9026265281648529e-06 1.2131616682508335 4.8917412644070708e-07 0.0000000000000000 0.10416666666666667 0.0000000000000000 0.10416405231601848 -4.9026265281648529e-06 
0.10416666666666667 0.010416666666666666 0.0000000000000000 -2.3137239042954394e-06 -4.7270616066849412e-06 1.2405391622645876 5.4874138062295081e-07 -3.4358896991989900e-07 0.10416666666666667 0.010416666666666666 0.10416435294276237 0.010411939605059982 
0.11458333333333333 0.0000000000000000 0.0000000000000000 -2.7825889042024771e-06 -5.2086362928754911e-06 1.1640128137086325 4.3259507672799684e-07 0.0000000000000000 0.11458333333333333 0.0000000000000000 0.11458055074442913 -5.2086362928754911e-06 
0.11458333333333333 0.010416666666666666 0.0000000000000000 -2.4877641742769408e-06 -5.0397134514763103e-06 1.1872133309676662 4.7921171771545416e-07 -2.8429032498660383e-07 0.11458333333333333 0.010416666666666666 0.11458084556915905 0.010411626953215189 
0.12500000000000000 0.0000000000000000 0.0000000000000000 -2.9453366906999659e-06 -5.5087135571017009e-06 1.1202327612945115 3.8998067240635083e-07 0.0000000000000000 0.12500000000000000 0.0000000000000000 0.12499705466330931 -5.5087135571017009e-06 
0.12500000000000000 0.010416666666666666 0.0000000000000000 -2.6552209116007981e-06 -5.3457722894174817e-06 1.1401696112412489 4.2696088572760060e-07 -2.3722017580109891e-07 0.12500000000000000 0.010416666666666666 0.12499734477908840 0.010411320894377249 
0.13541666666666666 0.0000000000000000 0.0000000000000000 -3.1030114458316374e-06 -5.8040096792425723e-06 1.0805536748920830 3.5706617106846788e-07 0.0000000000000000 0.13541666666666666 0.0000000000000000 0.13541356365522084 -5.8040096792425723e-06 
0.13541666666666666 0.010416666666666666 0.0000000000000000 -2.8167220449096681e-06 -5.6465397217436827e-06 1.0978972665897280 3.8674538730296557e-07 -1.9937108418692123e-07 0.13541666666666666 0.010416666666666666 0.13541384994462177 0.010411020126944922 
0.14583333333333334 0.0000000000000000 0.0000000000000000 -3.2559415370826342e-06 -6.0954373867120557e-06 1.0440785048044094 3.3110054007391643e-07 0.0000000000000000 0.14583333333333334 0.0000000000000000 0.14583007739179626 -6.0954373867120557e-06 
0.14583333333333334 0.010416666666666666 0.0000000000000000 -2.9727614441397215e-06 -5.9430365635263305e-06 1.0593331828091570 3.5515207756009134e-07 -1.6861740215195666e-07 0.14583333333333334 0.010416666666666666 0.14583036057188917 0.010410723630103140 
0.15625000000000000 0.0000000000000000 0.0000000000000000 -3.4043902214012090e-06 -6.3837291993443359e-06 1.0101548538828948 3.1024480769735547e-07 0.0000000000000000 0.15625000000000000 0.0000000000000000 0.15624659560977860 -6.3837291993443359e-06 
0.15625000000000000 0.010416666666666666 0.0000000000000000 -3.1237333468428438e-06 -6.2360750081627399e-06 1.0237081481391090 3.2988891178637064e-07 -1.4342127589939585e-07 0.15625000000000000 0.010416666666666666 0.15624687626665315 0.010410430591658503 
0.16666666666666666 0.0000000000000000 0.0000000000000000 -3.5485719956125471e-06 -6.6694787012228781e-06 0.97829707026520862 2.9322952117452531e-07 0.0000000000000000 0.16666666666666666 0.0000000000000000 0.16666311809467105 -6.6694787012228781e-06 
0.16666666666666666 0.010416666666666666 0.0000000000000000 -3.2699568190827524e-06 -6.5263085791288587e-06 0.99045217135154340 3.0937173406023279e-07 -1.2264559639963432e-07 0.16666666666666666 0.010416666666666666 0.16666339670984756 0.010410140358087537 
0.17708333333333334 0.0000000000000000 0.0000000000000000 -3.6886641345511136e-06 -6.9531704523454443e-06 0.94813650054927601 2.7915324155599816e-07 0.0000000000000000 0.17708333333333334 0.0000000000000000 0.17707964466919879 -6.9531704523454443e-06 
0.17708333333333334 0.010416666666666666 0.0000000000000000 -3.4116934234450157e-06 -6.8142677062795078e-06 0.95913428048527039 2.9247685689620396e-07 -1.0543293550925477e-07 0.17708333333333334 0.010416666666666666 0.17707992163990990 0.010409852398960388 
0.18750000000000000 0.0000000000000000 0.0000000000000000 -3.8248150623410773e-06 -7.2352021492746130e-06 0.91938870703935416 2.6735998997556320e-07 0.0000000000000000 0.18750000000000000 0.0000000000000000 0.18749617518493766 -7.2352021492746130e-06 
0.18750000000000000 0.010416666666666666 0.0000000000000000 -3.5491601830427916e-06 -7.1003856942134860e-06 0.92942304718625268 2.7838868002634518e-07 -9.1125443649048653e-08 0.18750000000000000 0.010416666666666666 0.18749645083981695 0.010409566280972450 
0.19791666666666666 0.0000000000000000 0.0000000000000000 -3.9571505671475929e-06 -7.5159013607569122e-06 0.89183122958040373 2.5736224853605933e-07 0.0000000000000000 0.19791666666666666 0.0000000000000000 0.19791270951609952 -7.5159013607569122e-06 
0.19791666666666666 0.010416666666666666 0.0000000000000000 -3.6825392372561151e-06 -7.3850180858231583e-06 0.90105994636994335 2.6650314916757594e-07 -7.9210613148686595e-08 0.19791666666666666 0.010416666666666666 0.19791298412742941 0.010409281648580843 
0.20833333333333334 0.0000000000000000 0.0000000000000000 -4.0857785041986223e-06 -7.7955383811422011e-06 0.86528810314808513 2.4879107323319809e-07 0.0000000000000000 0.20833333333333334 0.0000000000000000 0.20832924755482915 -7.7955383811422011e-06 
0.20833333333333334 0.010416666666666666 0.0000000000000000 -3.8119851354118228e-06 -7.6684573722150323e-06 0.87384090253411895 2.5636490437588988e-07 -6.9283727798119934e-08 0.20833333333333334 0.010416666666666666 0.20832952134819793 0.010408998209294451 
0.21875000000000000 0.0000000000000000 0.0000000000000000 -4.2107924128307415e-06 -8.0743362509312085e-06 0.83961882802484633 2.4136284753946924e-07 0.0000000000000000 0.21875000000000000 0.0000000000000000 0.21874578920758717 -8.0743362509312085e-06 
0.21875000000000000 0.010416666666666666 0.0000000000000000 -3.9376304191495400e-06 -7.9509443520247896e-06 0.84760320597032857 2.4762530824714164e-07 -6.1021319982541894e-08 0.21875000000000000 0.010416666666666666 0.21874606236958086 0.010408715722314639 
0.22916666666666666 0.0000000000000000 0.0000000000000000 -4.3322743370735534e-06 -8.3524786740501490e-06 0.81471035141715398 2.3485655639735004e-07 0.0000000000000000 0.22916666666666666 0.0000000000000000 0.22916233439232958 -8.3524786740501490e-06 
0.22916666666666666 0.010416666666666666 0.0000000000000000 -4.0595899474229957e-06 -8.2326770317815016e-06 0.82221604351201971 2.4001375756486008e-07 -5.4162051905361249e-08 0.22916666666666666 0.010416666666666666 0.22916260707671923 0.010408433989634884 
0.23958333333333334 0.0000000000000000 0.0000000000000000 -4.4502970516707273e-06 -8.6301163491897435e-06 0.79047113364221777 2.2909789753039094e-07 0.0000000000000000 0.23958333333333334 0.0000000000000000 0.23957888303628164 -8.6301163491897435e-06 
0.23958333333333334 0.010416666666666666 0.0000000000000000 -4.1779642852477864e-06 -8.5138176908548622e-06 0.79757351987073999 2.3331765748227848e-07 -4.8492709574263264e-08 0.23958333333333334 0.010416666666666666 0.23957915536904809 0.010408152848975812 
0.25000000000000000 0.0000000000000000 0.0000000000000000 -4.5649258374014179e-06 -8.9073720885356586e-06 0.76682668740349691 2.2394794990048294e-07 0.0000000000000000 0.25000000000000000 0.0000000000000000 0.24999543507416258 -8.9073720885356586e-06 
0.25000000000000000 0.010416666666666666 0.0000000000000000 -4.2928423864373299e-06 -8.7944985555353538e-06 0.77358943141187109 2.2736817589931201e-07 -4.3837786037379905e-08 0.25000000000000000 0.010416666666666666 0.24999570715761357 0.010407872168111133 
0.26041666666666669 0.0000000000000000 0.0000000000000000 -4.6762199101275079e-06 -9.1843449975901769e-06 0.74371617729867678 2.1929494912046855e-07 0.0000000000000000 0.26041666666666669 0.0000000000000000 0.26041199044675656 -9.1843449975901769e-06 
0.26041666666666669 0.010416666666666666 0.0000000000000000 -4.4043037375818132e-06 -9.0748264047192432e-06 0.75019329618143882 2.2202993644473141e-07 -4.0051628580290249e-08 0.26041666666666669 0.010416666666666666 0.26041226236292908 0.010407591840261949 
0.27083333333333331 0.0000000000000000 0.0000000000000000 -4.7842335805908285e-06 -9.4611139196370494e-06 0.72108979494786063 2.1504822433503668e-07 0.0000000000000000 0.27083333333333331 0.0000000000000000 0.27082854909975274 -9.4611139196370494e-06 
0.27083333333333331 0.010416666666666666 0.0000000000000000 -4.5124200862951389e-06 -9.3548863447773658e-06 0.72732729954954456 2.1719344666674292e-07 -3.7012446409573144e-08 0.27083333333333331 0.010416666666666666 0.27082882091324700 0.010407311780321891 
0.28125000000000000 0.0000000000000000 0.0000000000000000 -4.8890172025797022e-06 -9.7377402982134424e-06 0.69890670985429482 2.1113366594013324e-07 0.0000000000000000 0.28125000000000000 0.0000000000000000 0.28124511098279742 -9.7377402982134424e-06 
0.28125000000000000 0.010416666666666666 0.0000000000000000 -4.6172568453023296e-06 -9.6347449311110620e-06 0.70494391716588434 2.1276945853847048e-07 -3.4617687527088224e-08 0.28125000000000000 0.010416666666666666 0.28124538274315469 0.010407031921735555 
0.29166666666666669 0.0000000000000000 0.0000000000000000 -4.9906179531135112e-06 -1.0014270574518346e-05 0.67713345326226726 2.0749029492673091e-07 0.0000000000000000 0.29166666666666669 0.0000000000000000 0.29166167604871357 -1.0014270574518346e-05 
0.29166666666666669 0.010416666666666666 0.0000000000000000 -4.7188742413002417e-06 -9.9144527707078909e-06 0.68300404567076789 2.0868471533498347e-07 -3.2780436112649929e-08 0.29166666666666669 0.010416666666666666 0.29166194779242538 0.010406752213895960 
0.30208333333333331 0.0000000000000000 0.0000000000000000 -5.0890804780893050e-06 -1.0290738209881790e-05 0.65574263156160495 2.0406763630547997e-07 0.0000000000000000 0.30208333333333331 0.0000000000000000 0.30207824425285523 -1.0290738209881790e-05 
0.30208333333333331 0.010416666666666666 0.0000000000000000 -4.8173282610375866e-06 -1.0194046708510123e-05 0.66147551867839582 2.0487870721293679e-07 -3.1426579324050555e-08 0.30208333333333331 0.010416666666666666 0.30207851600507230 0.010406472619958156 
0.31250000000000000 0.0000000000000000 0.0000000000000000 -5.1844474292850688e-06 -1.0567165403456675e-05 0.63471189325211419 2.0082368695451325e-07 0.0000000000000000 0.31250000000000000 0.0000000000000000 0.31249481555257069 -1.0567165403456675e-05 
0.31250000000000000 0.010416666666666666 0.0000000000000000 -4.9126714349207400e-06 -1.0473551677133759e-05 0.64033191834055148 2.0130117004600725e-07 -3.0492560270475691e-08 0.31250000000000000 0.010416666666666666 0.31249508732856507 0.010406193114989533 
0.32291666666666669 0.0000000000000000 0.0000000000000000 -5.2767599129650317e-06 -1.0843564560260674e-05 0.61402309297402791 1.9772332804279155e-07 0.0000000000000000 0.32291666666666669 0.0000000000000000 0.32291138990675372 -1.0843564560260674e-05 
0.32291666666666669 0.010416666666666666 0.0000000000000000 -5.0049534894187431e-06 -1.0752982272071925e-05 0.61955161599637065 1.9791013836758763e-07 -2.9923581844343253e-08 0.32291666666666669 0.010416666666666666 0.32291166171317726 0.010405913684394594 
0.33333333333333331 0.0000000000000000 0.0000000000000000 -5.3660578660610300e-06 -1.1119939553256192e-05 0.59366161013657481 1.9473707346906176e-07 0.0000000000000000 0.33333333333333331 0.0000000000000000 0.33332796727546726 -1.1119939553256192e-05 
0.33333333333333331 0.010416666666666666 0.0000000000000000 -5.0942218927525037e-06 -1.1032344101360590e-05 0.59911699205455993 1.9467041578029750e-07 -2.9672160351825535e-08 0.33333333333333331 0.010416666666666666 0.33332823911144055 0.010405634322565305 
0.34375000000000000 0.0000000000000000 0.0000000000000000 -5.4523803726435494e-06 -1.1396286814368956e-05 0.57361578989572337 1.9184007472902096e-07 0.0000000000000000 0.34375000000000000 0.0000000000000000 0.34374454761962731 -1.1396286814368956e-05 
0.34375000000000000 0.010416666666666666 0.0000000000000000 -5.1805223132033003e-06 -1.1311634948639401e-05 0.57901379734419678 1.9155236302905790e-07 -2.9696952739779004e-08 0.34375000000000000 0.010416666666666666 0.34374481947768681 0.010405355031718027 
0.35416666666666669 0.0000000000000000 0.0000000000000000 -5.5357659308850964e-06 -1.1672596282535674e-05 0.55387648176051174 1.8901132330164800e-07 0.0000000000000000 0.35416666666666669 0.0000000000000000 0.35416113090073581 -1.1672596282535674e-05 
0.35416666666666669 0.010416666666666666 0.0000000000000000 -5.2638990054342723e-06 -1.1590845780799557e-05 0.55923062705433690 1.8853093000557069e-07 -2.9961799393328636e-08 0.35416666666666669 0.010416666666666666 0.35416140276766123 0.010405075820885866 
0.36458333333333331 0.0000000000000000 0.0000000000000000 -5.6162526787687497e-06 -1.1948852231552149e-05 0.53443665671220175 1.8623300640655884e-07 0.0000000000000000 0.36458333333333331 0.0000000000000000 0.36457771708065456 -1.1948852231552149e-05 
0.36458333333333331 0.010416666666666666 0.0000000000000000 -5.3443951371761545e-06 -1.1869961625395419e-05 0.53975848498019086 1.8558487667345772e-07 -3.0434937971717902e-08 0.36458333333333331 0.010416666666666666 0.36457798893819615 0.010404796705041271 
0.37500000000000000 0.0000000000000000 0.0000000000000000 -5.6938785852686157e-06 -1.2225033996305944e-05 0.51529108793252332 1.8348998286269850e-07 0.0000000000000000 0.37500000000000000 0.0000000000000000 0.37499430612141471 -1.2225033996305944e-05 
0.37500000000000000 0.010416666666666666 0.0000000000000000 -5.4220530662615197e-06 -1.2148962338284311e-05 0.52059042074126693 1.8269614149184839e-07 -3.1088353796318395e-08 0.37500000000000000 0.010416666666666666 0.37499457794693375 0.010404517704328382 
0.38541666666666669 0.0000000000000000 0.0000000000000000 -5.7686816125253833e-06 -1.2501116612658814e-05 0.49643608343037776 1.8076935366368558e-07 0.0000000000000000 0.38541666666666669 0.0000000000000000 0.38541089798505418 -1.2501116612658814e-05 
0.38541666666666669 0.010416666666666666 0.0000000000000000 -5.4969145761359913e-06 -1.2427823278241088e-05 0.50172122637954331 1.7984932589171793e-07 -3.1897239934742479e-08 0.38541666666666669 0.010416666666666666 0.38541116975209055 0.010404238843388425 
0.39583333333333331 0.0000000000000000 0.0000000000000000 -5.8406998535843012e-06 -1.2777071383597467e-05 0.47786926129749402 1.7806010783034636e-07 0.0000000000000000 0.39583333333333331 0.0000000000000000 0.39582749263347972 -1.2777071383597467e-05 
0.39583333333333331 0.010416666666666666 0.0000000000000000 -5.5690210765091873e-06 -1.2706515902341038e-05 0.48314718160134046 1.7703127070258574e-07 -3.2839545860702847e-08 0.39583333333333331 0.010416666666666666 0.39582776431225680 0.010403960150764323 
0.40625000000000000 0.0000000000000000 0.0000000000000000 -5.9099716494980335e-06 -1.3052866382146922e-05 0.45958936020301683 1.7535282848732392e-07 0.0000000000000000 0.40625000000000000 0.0000000000000000 0.40624409002835044 -1.3052866382146922e-05 
0.40625000000000000 0.010416666666666666 0.0000000000000000 -5.6384137746426264e-06 -1.2985008293544518e-05 0.46486583912169799 1.7423070597526954e-07 -3.3895598044345959e-08 0.40625000000000000 0.010416666666666666 0.40624436158622540 0.010403681658373120 
0.41666666666666669 0.0000000000000000 0.0000000000000000 -5.9765356889809490e-06 -1.3328466899826171e-05 0.44159607919583510 1.7263944743650665e-07 0.0000000000000000 0.41666666666666669 0.0000000000000000 0.41666069013097773 -1.3328466899826171e-05 
0.41666666666666669 0.010416666666666666 0.0000000000000000 -5.7051338218383496e-06 -1.3263265630018154e-05 0.44687584326967938 1.7143795975144617e-07 -3.5047779194291646e-08 0.41666666666666669 0.010416666666666666 0.41666096153284476 0.010403403401036649 
0.42708333333333331 0.0000000000000000 0.0000000000000000 -6.0404310933019713e-06 -1.3603835848036394e-05 0.42388994202138103 1.6991303909849241e-07 0.0000000000000000 0.42708333333333331 0.0000000000000000 0.42707729290224000 -1.3603835848036394e-05 
0.42708333333333331 0.010416666666666666 0.0000000000000000 -5.7692224389397272e-06 -1.3541250604194500e-05 0.42917677633854562 1.6864471452403407e-07 -3.6280255568895382e-08 0.42708333333333331 0.010416666666666666 0.42707756411089443 0.010403125416062474 
0.43750000000000000 0.0000000000000000 0.0000000000000000 -6.1016974886951969e-06 -1.3878934118638831e-05 0.40647218205450802 1.6716764653963669e-07 0.0000000000000000 0.43750000000000000 0.0000000000000000 0.43749389830251123 -1.3878934118638831e-05 
0.43750000000000000 0.010416666666666666 0.0000000000000000 -5.8307210240455119e-06 -1.3818923798325692e-05 0.41176902820360456 1.6584380249578144e-07 -3.7578743830486459e-08 0.43750000000000000 0.010416666666666666 0.43749416927897594 0.010402847742868341 
0.44791666666666669 0.0000000000000000 0.0000000000000000 -6.1603750682325606e-06 -1.4153720909052201e-05 0.38934464465718049 1.6439813389578482e-07 0.0000000000000000 0.44791666666666669 0.0000000000000000 0.44791050629159845 -1.4153720909052201e-05 
0.44791666666666669 0.010416666666666666 0.0000000000000000 -5.8896712451398599e-06 -1.4096244022269883e-05 0.39465368555142971 1.6302903263226166e-07 -3.8930310550022153e-08 0.44791666666666669 0.010416666666666666 0.44791077699542153 0.010402570422644397 
0.45833333333333331 0.0000000000000000 0.0000000000000000 -6.2165046448253836e-06 -1.4428154016438557e-05 0.37250970433101865 1.6160006061415759e-07 0.0000000000000000 0.45833333333333331 0.0000000000000000 0.45832711682868849 -1.4428154016438557e-05 
0.45833333333333331 0.010416666666666666 0.0000000000000000 -5.9461151199314779e-06 -1.4373168618417004e-05 0.37783243771458630 1.6019504391923473e-07 -4.0323198764587730e-08 0.45833333333333331 0.010416666666666666 0.45832738721821337 0.010402293498048248 
0.46875000000000000 0.0000000000000000 0.0000000000000000 -6.2701276967907654e-06 -1.4702190104918391e-05 0.35597019448326866 1.5876957385545073e-07 0.0000000000000000 0.46875000000000000 0.0000000000000000 0.46874372987230323 -1.4702190104918391e-05 
0.46875000000000000 0.010416666666666666 0.0000000000000000 -6.0000950848563799e-06 -1.4649653737975324e-05 0.36130749662502892 1.5733718037323397e-07 -4.1746677022656447e-08 0.46875000000000000 0.010416666666666666 0.46874399990491517 0.010402017012928691 
0.47916666666666669 0.0000000000000000 0.0000000000000000 -6.3212864072249417e-06 -1.4975784949236730e-05 0.33972934798429605 1.5590331613781173e-07 0.0000000000000000 0.47916666666666669 0.0000000000000000 0.47916034538025948 -1.4975784949236730e-05 
0.47916666666666669 0.010416666666666666 0.0000000000000000 -6.0516540549167501e-06 -1.4925654592275523e-05 0.34508152881488879 1.5445138422330679e-07 -4.3190907155708180e-08 0.47916666666666669 0.010416666666666666 0.47916061501261176 0.010401741012074391 
0.48958333333333331 0.0000000000000000 0.0000000000000000 -6.3700236982619307e-06 -1.5248893657872455e-05 0.32379074698379123 1.5299834584881461e-07 0.0000000000000000 0.48958333333333331 0.0000000000000000 0.48957696330963502 -1.5248893657872455e-05 
0.48958333333333331 0.010416666666666666 0.0000000000000000 -6.1008354757920607e-06 -1.5201125682282389e-05 0.32915759772752512 1.5153410438453696e-07 -4.4646827690715820e-08 0.48958333333333331 0.010416666666666666 0.48957723249785751 0.010401465540984383 
0.50000000000000000 0.0000000000000000 0.0000000000000000 -6.4163832611562685e-06 -1.5521470878225886e-05 0.30815828068664858 1.5005206870553446e-07 0.0000000000000000 0.50000000000000000 0.0000000000000000 0.49999358361673885 -1.5521470878225886e-05 
0.50000000000000000 0.010416666666666666 0.0000000000000000 -6.1476833694590628e-06 -1.5476021009117611e-05 0.31353911487123864 1.4858221789585904e-07 -4.6106050335179559e-08 0.50000000000000000 0.010416666666666666 0.49999385231663052 0.010401190645657548 
0.51041666666666663 0.0000000000000000 0.0000000000000000 -6.4604095830088860e-06 -1.5793470986223105e-05 0.29283610997769638 1.4706217864146910e-07 0.0000000000000000 0.51041666666666663 0.0000000000000000 0.51041020625708367 -1.5793470986223105e-05 
0.51041666666666663 0.010416666666666666 0.0000000000000000 -6.1922423743875451e-06 -1.5750294268076059e-05 0.29822979856578141 1.4559296245113731e-07 -4.7560767401290422e-08 0.51041666666666663 0.010416666666666666 0.51041047442429222 0.010400916372398592 
0.52083333333333337 0.0000000000000000 0.0000000000000000 -6.5021479708512089e-06 -1.6064848262429906e-05 0.27782863793740548 1.4402660684139806e-07 0.0000000000000000 0.52083333333333337 0.0000000000000000 0.52082683118536255 -1.6064848262429906e-05 
0.52083333333333337 0.010416666666666666 0.0000000000000000 -6.2345577812330946e-06 -1.6023899028353061e-05 0.28323363920789973 1.4256387848757936e-07 -4.9003668383042533e-08 0.52083333333333337 0.010416666666666666 0.52082709877555200 0.010400642767638314 
0.53125000000000000 0.0000000000000000 0.0000000000000000 -6.5416445737117372e-06 -1.6335557056563551e-05 0.26314048541338458 1.4094347794059110e-07 0.0000000000000000 0.53125000000000000 0.0000000000000000 0.53124345835542630 -1.6335557056563551e-05 
0.53125000000000000 0.010416666666666666 0.0000000000000000 -6.2746755648220964e-06 -1.6296788900479510e-05 0.26855487012446838 1.3949275962551643e-07 -5.0427864178979375e-08 0.53125000000000000 0.010416666666666666 0.53124372532443520 0.010400369877766186 
0.54166666666666663 0.0000000000000000 0.0000000000000000 -6.5789464032088340e-06 -1.6605551942122497e-05 0.24877647091140540 1.3781107257147054e-07 0.0000000000000000 0.54166666666666663 0.0000000000000000 0.54166008772026342 -1.6605551942122497e-05 
0.54166666666666663 0.010416666666666666 0.0000000000000000 -6.3126424131139047e-06 -1.6568917693281098e-05 0.25419794319626515 1.3637761045619230e-07 -5.1826817689872584e-08 0.54166666666666663 0.010416666666666666 0.54166035402425361 0.010400097748973386 
0.55208333333333337 0.0000000000000000 0.0000000000000000 -6.6141013531412784e-06 -1.6874787862715224e-05 0.23474159414803905 1.3462779562071636e-07 0.0000000000000000 0.55208333333333337 0.0000000000000000 0.55207671923198021 -1.6874787862715224e-05 
0.55208333333333337 0.010416666666666666 0.0000000000000000 -6.3485057537275381e-06 -1.6840239562028605e-05 0.24016750852680976 1.3321661091703719e-07 -5.3194279705983717e-08 0.55208333333333337 0.010416666666666666 0.55207698482757961 0.010399826427104637 
0.56250000000000000 0.0000000000000000 0.0000000000000000 -6.6471582184825338e-06 -1.7143220271557147e-05 0.22104102266786929 1.3139214972401952e-07 0.0000000000000000 0.56250000000000000 0.0000000000000000 0.56249335284178148 -1.7143220271557147e-05 
0.56250000000000000 0.010416666666666666 0.0000000000000000 -6.3823137785328274e-06 -1.7110709149326210e-05 0.22646839750272094 1.3000808662652288e-07 -5.4524229152772685e-08 0.56250000000000000 0.010416666666666666 0.56249361768622130 0.010399555957517339 
0.57291666666666663 0.0000000000000000 0.0000000000000000 -6.6781667141239599e-06 -1.7410805265513861e-05 0.20768008097442001 1.2810271361386443e-07 0.0000000000000000 0.57291666666666663 0.0000000000000000 0.57290998849995256 -1.7410805265513861e-05 
0.57291666666666663 0.010416666666666666 0.0000000000000000 -6.4141154667261979e-06 -1.7380281720188108e-05 0.21310560864682845 1.2675048474952860e-07 -5.5810816905630174e-08 0.57291666666666663 0.010416666666666666 0.57291025255119987 0.010399286384946478 
0.58333333333333337 0.0000000000000000 0.0000000000000000 -6.7071774936551998e-06 -1.7677499714998301e-05 0.19466424165727081 1.2475812508302973e-07 0.0000000000000000 0.58333333333333337 0.0000000000000000 0.58332662615583974 -1.7677499714998301e-05 
0.58333333333333337 0.010416666666666666 0.0000000000000000 -6.4439606067376531e-06 -1.7648913292678576e-05 0.20008429570633188 1.2344235503037181e-07 -5.7048312452980736e-08 0.58333333333333337 0.010416666666666666 0.58332688937272659 0.010399017753373986 
0.59375000000000000 0.0000000000000000 0.0000000000000000 -6.7342421684150346e-06 -1.7943261390975790e-05 0.18199911801740024 1.2135706844241047e-07 0.0000000000000000 0.59375000000000000 0.0000000000000000 0.59374326575783154 -1.7943261390975790e-05 
0.59375000000000000 0.010416666666666666 0.0000000000000000 -6.4718998172458338e-06 -1.7916560765434514e-05 0.18740975744534313 1.2008233583484618e-07 -5.8231052831364383e-08 0.59375000000000000 0.010416666666666666 0.59374352810018272 0.010398750105901232 
0.60416666666666663 0.0000000000000000 0.0000000000000000 -6.7594133269923206e-06 -1.8208049090293339e-05 0.16969045770273505 1.1789826639955292e-07 0.0000000000000000 0.60416666666666663 0.0000000000000000 0.60415990725333968 -1.8208049090293339e-05 