# For a description of the Tecplot format see the Tecplot User's guide.
#
Variables=x,y,z,s_u,s_v,s_p,x,y,ref_u,ref_v,u,v
Zone f=fepoint, n=4225, e=8192, et=quadrilateral, c=black
0.00000 0.00000 0.00000 0.0000000000000000 0.0000000000000000 3.3265115026670786 0.0000000000000000 0.0000000000000000 0.0000000000000000 0.0000000000000000 0.0000000000000000 0.0000000000000000 
0.015625000000000000 0.0000000000000000 0.0000000000000000 -6.9681961791851094e-07 -1.5101797306872695e-06 2.7823805824927343 7.7060237610610428e-06 0.0000000000000000 0.015625000000000000 0.0000000000000000 0.015624303180382082 -1.5101797306872695e-06 
0.015625000000000000 0.015625000000000000 0.0000000000000000 -1.8180392213801074e-07 -9.7404705973513803e-07 2.9222498450491110 4.6511133732739588e-06 9.9491519749118695e-07 0.015625000000000000 0.015625000000000000 0.015624818196077863 0.015624025952940266 
0.0000000000000000 0.015625000000000000 0.0000000000000000 0.0000000000000000 0.0000000000000000 3.0958212041436117 0.0000000000000000 4.4047946499302837e-06 0.0000000000000000 0.015625000000000000 0.0000000000000000 0.015625000000000000 
0.031250000000000000 0.0000000000000000 0.0000000000000000 -1.1508300588532110e-06 -2.3347203045188664e-06 2.1550275000338819 2.9695885700347747e-06 0.0000000000000000 0.031250000000000000 0.0000000000000000 0.031248849169941150 -2.3347203045188664e-06 
0.031250000000000000 0.015625000000000000 0.0000000000000000 -6.2088498955030707e-07 -1.9024787526124076e-06 2.3471761103917346 2.9804123250438242e-06 -1.8073574498367294e-06 0.031250000000000000 0.015625000000000000 0.031249379115010450 0.015623097521247386 
0.046875000000000000 0.0000000000000000 0.0000000000000000 -1.5179386851558500e-06 -2.9816177055424917e-06 1.7785508336884430 1.8522580261237831e-06 0.0000000000000000 0.046875000000000000 0.0000000000000000 0.046873482061314843 -2.9816177055424917e-06 
0.046875000000000000 0.015625000000000000 0.0000000000000000 -1.0075967968142027e-06 -2.6143297180568487e-06 1.9175901645633282 2.1913614343201098e-06 -1.1013376786166724e-06 0.046875000000000000 0.015625000000000000 0.046873992403203175 0.015622385670281944 
0.062500000000000000 0.0000000000000000 0.0000000000000000 -1.8399649901750743e-06 -3.5461437505488264e-06 1.5446392294501881 1.1765226095099844e-06 0.0000000000000000 0.062500000000000000 0.0000000000000000 0.062498160035009825 -3.5461437505488264e-06 
0.062500000000000000 0.015625000000000000 0.0000000000000000 -1.3531815731737749e-06 -3.2203255473228800e-06 1.6409222912121015 1.3753555155128377e-06 -8.3288325436802282e-07 0.062500000000000000 0.015625000000000000 0.062498646818426824 0.015621779674452677 
0.078125000000000000 0.0000000000000000 0.0000000000000000 -2.1337544056409213e-06 -4.0627298860370419e-06 1.3878103145885312 8.1227949199825858e-07 0.0000000000000000 0.078125000000000000 0.0000000000000000 0.078122866245594363 -4.0627298860370419e-06 
0.078125000000000000 0.015625000000000000 0.0000000000000000 -1.6677613399642574e-06 -3.7657033470745128e-06 1.4563144472973262 9.6482927153931503e-07 -5.9141126393808671e-07 0.078125000000000000 0.015625000000000000 0.078123332238660040 0.015621234296652924 
0.093750000000000000 0.0000000000000000 0.0000000000000000 -2.4074015496757269e-06 -4.5483250895696720e-06 1.2745216726268707 6.0808239841037269e-07 0.0000000000000000 0.093750000000000000 0.0000000000000000 0.093747592598450322 -4.5483250895696720e-06 
0.093750000000000000 0.015625000000000000 0.0000000000000000 -1.9581670560772135e-06 -4.2728480577695270e-06 1.3251916867034736 7.1448296779409026e-07 -4.3523980338414522e-07 0.093750000000000000 0.015625000000000000 0.093748041832943926 0.015620727151942232 
0.10937500000000000 0.0000000000000000 0.0000000000000000 -2.6652861520172353e-06 -5.0127065019220090e-06 1.1870246004295926 4.8481097898960142e-07 0.0000000000000000 0.10937500000000000 0.0000000000000000 0.10937233471384798 -5.0127065019220090e-06 
0.10937500000000000 0.015625000000000000 0.0000000000000000 -2.2290582547382412e-06 -4.7543876674345813e-06 1.2259226026417125 5.6036857355586801e-07 -3.2700052525540675e-07 0.10937500000000000 0.015625000000000000 0.10937277094174526 0.015620245612332566 
0.12500000000000000 0.0000000000000000 0.0000000000000000 -2.9100018165335921e-06 -5.4620837305915981e-06 1.1156285496553875 4.0650022173397591e-07 0.0000000000000000 0.12500000000000000 0.0000000000000000 0.12499708999818347 -5.4620837305915981e-06 
0.12500000000000000 0.015625000000000000 0.0000000000000000 -2.4836741304118202e-06 -5.2181097399332803e-06 1.1464794757284484 4.6113876975013195e-07 -2.5076105290732307e-07 0.12500000000000000 0.015625000000000000 0.12499751632586960 0.015619781890260065 
0.14062500000000000 0.0000000000000000 0.0000000000000000 -3.1432002312548099e-06 -5.9006464019005662e-06 1.0548094070660092 3.5410648657061041e-07 0.0000000000000000 0.14062500000000000 0.0000000000000000 0.14062185679976874 -5.9006464019005662e-06 
0.14062500000000000 0.015625000000000000 0.0000000000000000 -2.7243137742543226e-06 -5.6691247056980354e-06 1.0799726357507273 3.9421700788287746e-07 -1.9562779841896610e-07 0.14062500000000000 0.015625000000000000 0.14062227568622573 0.015619330875294301 
0.15625000000000000 0.0000000000000000 0.0000000000000000 -3.3659980152400103e-06 -6.3313377123630835e-06 1.0012675505347222 3.1741627287173827e-07 0.0000000000000000 0.15625000000000000 0.0000000000000000 0.15624663400198477 -6.3313377123630835e-06 
0.15625000000000000 0.015625000000000000 0.0000000000000000 -2.9526428167016806e-06 -6.1109403073309730e-06 1.0222961232984511 3.4726443786603222e-07 -1.5491527918466709e-07 0.15625000000000000 0.015625000000000000 0.15624704735718331 0.015618889059692670 
0.17187500000000000 0.0000000000000000 0.0000000000000000 -3.5791881679446492e-06 -6.7562828351234844e-06 0.95294033048851634 2.9069589464619155e-07 0.0000000000000000 0.17187500000000000 0.0000000000000000 0.17187142081183204 -6.7562828351234844e-06 
0.17187500000000000 0.015625000000000000 0.0000000000000000 -3.1698928242110897e-06 -6.5460433444589650e-06 0.97089593993114276 3.1312987384310876e-07 -1.2438397874071587e-07 0.17187500000000000 0.015625000000000000 0.17187183010717580 0.015618453956655539 
0.18750000000000000 0.0000000000000000 0.0000000000000000 -3.7833574882242719e-06 -7.1770449342113709e-06 0.90848346681775993 2.7056459948597792e-07 0.0000000000000000 0.18750000000000000 0.0000000000000000 0.18749621664251179 -7.1770449342113709e-06 
0.18750000000000000 0.015625000000000000 0.0000000000000000 -3.3769931428425804e-06 -6.9762375430741439e-06 0.92411680608233215 2.8753118511972762e-07 -1.0124994448934383e-07 0.18750000000000000 0.015625000000000000 0.18749662300685713 0.015618023762456926 
0.20312500000000000 0.0000000000000000 0.0000000000000000 -3.9789556992410468e-06 -7.5947870963219220e-06 0.86698865154449012 2.5493958121366088e-07 0.0000000000000000 0.20312500000000000 0.0000000000000000 0.20312102104430077 -7.5947870963219220e-06 
0.20312500000000000 0.015625000000000000 0.0000000000000000 -3.5746594464130276e-06 -7.4028511389966989e-06 0.88084590761885118 2.6779856056018849e-07 -8.3624986357344273e-08 0.20312500000000000 0.015625000000000000 0.20312142534055358 0.015617597148861004 
0.21875000000000000 0.0000000000000000 0.0000000000000000 -4.1663383170017307e-06 -8.0103793926996206e-06 0.82782349806878630 2.4248255310779022e-07 0.0000000000000000 0.21875000000000000 0.0000000000000000 0.21874583366168299 -8.0103793926996206e-06 
0.21875000000000000 0.015625000000000000 0.0000000000000000 -3.7634541694146075e-06 -7.8268705095476356e-06 0.84031152582394286 2.5220383206154602e-07 -7.0187590665856585e-08 0.21875000000000000 0.015625000000000000 0.21874623654583059 0.015617173129490453 
0.23437500000000000 0.0000000000000000 0.0000000000000000 -4.3457944811690497e-06 -8.4244722367275370e-06 0.79053704541408898 2.3230085082072728e-07 0.0000000000000000 0.23437500000000000 0.0000000000000000 0.23437065420551884 -8.4244722367275370e-06 
0.23437500000000000 0.015625000000000000 0.0000000000000000 -3.9438284260567171e-06 -8.2490296298470312e-06 0.80196474264045658 2.3959025488758186e-07 -5.9987123149837312e-08 0.23437500000000000 0.015625000000000000 0.23437105617157394 0.015616750970370153 
0.25000000000000000 0.0000000000000000 0.0000000000000000 -4.5175657497265644e-06 -8.8375481676277382e-06 0.75480170677357095 2.2377941968750463e-07 0.0000000000000000 0.25000000000000000 0.0000000000000000 0.24999548243425027 -8.8375481676277382e-06 
0.25000000000000000 0.015625000000000000 0.0000000000000000 -4.1161515628189021e-06 -8.6698719811075856e-06 0.76540720364092152 2.2916028555581677e-07 -5.2323247408997112e-08 0.25000000000000000 0.015625000000000000 0.24999588384843721 0.015616330128018890 
0.26562500000000000 0.0000000000000000 0.0000000000000000 -4.6818592198907792e-06 -9.2499593497092319e-06 0.72037625823012164 2.1648262276126197e-07 0.0000000000000000 0.26562500000000000 0.0000000000000000 0.26562031814078013 -9.2499593497092319e-06 
0.26562500000000000 0.015625000000000000 0.0000000000000000 -4.2807323264260229e-06 -9.0897946368170397e-06 0.73034535065277739 2.2034978611923739e-07 -4.6669249711102300e-08 0.26562500000000000 0.015625000000000000 0.26562071926767356 0.015615910205363183 
0.28125000000000000 0.0000000000000000 0.0000000000000000 -4.8388569425744597e-06 -9.6619553395785429e-06 0.68708143430897872 2.1009467714557219e-07 0.0000000000000000 0.28125000000000000 0.0000000000000000 0.28124516114305742 -9.6619553395785429e-06 
0.28125000000000000 0.015625000000000000 0.0000000000000000 -4.4378342585657457e-06 -9.5090804475102612e-06 0.69656042945773244 2.1275086480592801e-07 -4.2621793271542398e-08 0.28125000000000000 0.015625000000000000 0.28124556216574143 0.015615490919552487 
0.29687500000000000 0.0000000000000000 0.0000000000000000 -4.9887228293330405e-06 -1.0073704056844295e-05 0.65478334823787887 2.0438222649645523e-07 0.0000000000000000 0.29687500000000000 0.0000000000000000 0.29687001127717066 -1.0073704056844295e-05 
0.29687500000000000 0.015625000000000000 0.0000000000000000 -4.5876870527180249e-06 -9.9279220550356392e-06 0.66388823360378368 2.0606302767940997e-07 -3.9867077859497438e-08 0.29687500000000000 0.015625000000000000 0.29687041231294731 0.015615072077944964 
0.31250000000000000 0.0000000000000000 0.0000000000000000 -5.1316078106443086e-06 -1.0485307903614745e-05 0.62338192944878956 1.9917005220975437e-07 0.0000000000000000 0.31250000000000000 0.0000000000000000 0.31249486839218937 -1.0485307903614745e-05 
0.31250000000000000 0.015625000000000000 0.0000000000000000 -4.7304950426347066e-06 -1.0346440159296740e-05 0.63220505613692779 2.0006134505422741e-07 -3.8157492459000041e-08 0.31250000000000000 0.015625000000000000 0.31249526950495737 0.015614653559840702 
0.32812500000000000 0.0000000000000000 0.0000000000000000 -5.2676537427431720e-06 -1.0896816352961369e-05 0.59280267451495894 1.9432484543384224e-07 0.0000000000000000 0.32812500000000000 0.0000000000000000 0.32811973234625724 -1.0896816352961369e-05 
0.32812500000000000 0.015625000000000000 0.0000000000000000 -4.8664436222413042e-06 -1.0764697653389337e-05 0.60141771870427874 1.9457515481943734e-07 -3.7295161661275339e-08 0.32812500000000000 0.015625000000000000 0.32812013355637776 0.015614235302346610 
0.34375000000000000 0.0000000000000000 0.0000000000000000 -5.3969963991286223e-06 -1.1308235921467528e-05 0.56299064502955520 1.8974407867827614e-07 0.0000000000000000 0.34375000000000000 0.0000000000000000 0.34374460300360088 -1.1308235921467528e-05 
0.34375000000000000 0.015625000000000000 0.0000000000000000 -4.9957041520733481e-06 -1.1182710730562620e-05 0.57145635093343516 1.8947347455153819e-07 -3.7120130102794071e-08 0.34375000000000000 0.015625000000000000 0.34374500429584792 0.015613817289269439 
0.35937500000000000 0.0000000000000000 0.0000000000000000 -5.5197677803623417e-06 -1.1719538172460402e-05 0.53390602569797541 1.8534819520414642e-07 0.0000000000000000 0.35937500000000000 0.0000000000000000 0.35936948023221965 -1.1719538172460402e-05 
0.35937500000000000 0.015625000000000000 0.0000000000000000 -5.1184377433515816e-06 -1.1600457732611726e-05 0.54226906957658760 1.8465479417264273e-07 -3.7501733165158525e-08 0.35937500000000000 0.015625000000000000 0.35936988156225663 0.015613399542267389 
0.37500000000000000 0.0000000000000000 0.0000000000000000 -5.6360979085939596e-06 -1.2130666214868075e-05 0.50552078898548725 1.8107501211874699e-07 0.0000000000000000 0.37500000000000000 0.0000000000000000 0.37499436390209140 -1.2130666214868075e-05 
0.37500000000000000 0.015625000000000000 0.0000000000000000 -5.2347981993697292e-06 -1.2017886286885925e-05 0.51381799810241857 1.8003979503142049e-07 -3.8332197013556764e-08 0.37500000000000000 0.015625000000000000 0.37499476520180064 0.015612982113713115 
0.39062500000000000 0.0000000000000000 0.0000000000000000 -5.7461162280103219e-06 -1.2541540037489417e-05 0.47781615963997331 1.7687563440481393e-07 0.0000000000000000 0.39062500000000000 0.0000000000000000 0.39061925388377200 -1.2541540037489417e-05 
0.39062500000000000 0.015625000000000000 0.0000000000000000 -5.3449343171196994e-06 -1.2434919127859111e-05 0.48607625027825091 1.7556606491314545e-07 -3.9521823824846270e-08 0.39062500000000000 0.015625000000000000 0.39061965506568286 0.015612565080872139 
0.40625000000000000 0.0000000000000000 0.0000000000000000 -5.8499527012048763e-06 -1.2952060930808985e-05 0.45078066741162015 1.7271142152110024e-07 0.0000000000000000 0.40625000000000000 0.0000000000000000 0.40624415004729880 -1.2952060930808985e-05 
0.40625000000000000 0.015625000000000000 0.0000000000000000 -5.4489916984905718e-06 -1.2851458894489212e-05 0.45902561900926570 1.7118420030306727e-07 -4.0995320390151178e-08 0.40625000000000000 0.015625000000000000 0.40624455100830154 0.015612148541105512 
0.42187500000000000 0.0000000000000000 0.0000000000000000 -5.9477386694757668e-06 -1.3362115186178921e-05 0.42440863907529991 1.6855170104094267e-07 0.0000000000000000 0.42187500000000000 0.0000000000000000 0.42186905226133059 -1.3362115186178921e-05 
0.42187500000000000 0.015625000000000000 0.0000000000000000 -5.5471141824473552e-06 -1.3267392120887850e-05 0.43265478921102135 1.6685488974434848e-07 -4.2688961965003835e-08 0.42187500000000000 0.015625000000000000 0.42186945288581762 0.015611732607879111 
0.43750000000000000 0.0000000000000000 0.0000000000000000 -6.0396075292619621e-06 -1.3771577217296497e-05 0.39869902318627853 1.6437202165332555e-07 0.0000000000000000 0.43750000000000000 0.0000000000000000 0.43749396039247074 -1.3771577217296497e-05 
0.43750000000000000 0.015625000000000000 0.0000000000000000 -5.6394449823840503e-06 -1.3682592585181836e-05 0.40695794555825371 1.6254670237370695e-07 -4.4548373220495500e-08 0.43750000000000000 0.015625000000000000 0.43749436055501761 0.015611317407414818 
0.45312500000000000 0.0000000000000000 0.0000000000000000 -6.1256952653713983e-06 -1.4180312216172188e-05 0.37365447004050995 1.6015280194157234e-07 0.0000000000000000 0.45312500000000000 0.0000000000000000 0.45311887430473458 -1.4180312216172188e-05 
0.45312500000000000 0.015625000000000000 0.0000000000000000 -5.7261275930609742e-06 -1.4096924143359010e-05 0.38193368156049951 1.5823439116482356e-07 -4.6526769718628383e-08 0.45312500000000000 0.015625000000000000 0.45311927387240697 0.015610903075856641 
0.46875000000000000 0.0000000000000000 0.0000000000000000 -6.2061408730607120e-06 -1.4588178431659154e-05 0.34928060955083523 1.5587827414308782e-07 0.0000000000000000 0.46875000000000000 0.0000000000000000 0.46874379385912696 -1.4588178431659154e-05 
0.46875000000000000 0.015625000000000000 0.0000000000000000 -5.8073065169587903e-06 -1.4510243147011033e-05 0.35758414115580645 1.5389757749009966e-07 -4.8583546102167057e-08 0.46875000000000000 0.015625000000000000 0.46874419269348305 0.015610489756852988 
0.48437500000000000 0.0000000000000000 0.0000000000000000 -6.2810866945308797e-06 -1.4995029140672371e-05 0.32558548404990378 1.5153565123303519e-07 0.0000000000000000 0.48437500000000000 0.0000000000000000 0.48436871891330546 -1.4995029140672371e-05 
0.48437500000000000 0.015625000000000000 0.0000000000000000 -5.8831278489952966e-06 -1.4922400523274925e-05 0.33391434144579257 1.4951972239750801e-07 -5.0683127282506606e-08 0.48437500000000000 0.015625000000000000 0.48436911687215106 0.015610077599476723 
0.50000000000000000 0.0000000000000000 0.0000000000000000 -6.3506786904152312e-06 -1.5400714368779197e-05 0.30257910324949799 1.4711446581041237e-07 0.0000000000000000 0.50000000000000000 0.0000000000000000 0.49999364932130957 -1.5400714368779197e-05 
0.50000000000000000 0.015625000000000000 0.0000000000000000 -5.9537397503086180e-06 -1.5333243579910931e-05 0.31093163762420589 1.4508731683068734e-07 -5.2794020362007127e-08 0.50000000000000000 0.015625000000000000 0.49999404626024974 0.015609666756420089 
0.51562500000000000 0.0000000000000000 0.0000000000000000 -6.4150666629414121e-06 -1.5805082406707491e-05 0.28027309595471195 1.4260604351697555e-07 0.0000000000000000 0.51562500000000000 0.0000000000000000 0.51561858493333701 -1.5805082406707491e-05 
0.51562500000000000 0.015625000000000000 0.0000000000000000 -6.0192928354782006e-06 -1.5742617586930465e-05 0.28864530009984929 1.4058924177165436e-07 -5.4888020438289543e-08 0.51562500000000000 0.015625000000000000 0.51561898070716439 0.015609257382413070 
0.53125000000000000 0.0000000000000000 0.0000000000000000 -6.4744044443540477e-06 -1.6207981161655221e-05 0.25868043847105066 1.3800308388061439e-07 0.0000000000000000 0.53125000000000000 0.0000000000000000 0.53124352559555565 -1.6207981161655221e-05 
0.53125000000000000 0.015625000000000000 0.0000000000000000 -6.0799404926134415e-06 -1.6150367177511821e-05 0.26706618029910961 1.3601626278410411e-07 -5.6939534704132615e-08 0.53125000000000000 0.015625000000000000 0.53124392005950749 0.015608849632822488 
0.54687500000000000 0.0000000000000000 0.0000000000000000 -6.5288500616747086e-06 -1.6609259376491740e-05 0.23781524351509389 1.3329932896248540e-07 0.0000000000000000 0.54687500000000000 0.0000000000000000 0.54686847114993831 -1.6609259376491740e-05 
0.54687500000000000 0.015625000000000000 0.0000000000000000 -6.1358391518139690e-06 -1.6556337604410247e-05 0.24620644634325062 1.3136063314458699e-07 -5.8924997462663659e-08 0.54687500000000000 0.015625000000000000 0.54686886416084823 0.015608443662395588 
0.56250000000000000 0.0000000000000000 0.0000000000000000 -6.5785658867926519e-06 -1.7008767745583603e-05 0.21769259622043616 1.2848930581803348e-07 0.0000000000000000 0.56250000000000000 0.0000000000000000 0.56249342143411318 -1.7008767745583603e-05 
0.56250000000000000 0.015625000000000000 0.0000000000000000 -6.1871485143216904e-06 -1.6960375883176246e-05 0.22607937320111404 1.2661578703612717e-07 -6.0822354792586583e-08 0.56250000000000000 0.015625000000000000 0.56249381285148570 0.015608039624116823 
0.57812500000000000 0.0000000000000000 0.0000000000000000 -6.6237187791014257e-06 -1.7406359952744337e-05 0.19832842577916310 1.2356813313872911e-07 0.0000000000000000 0.57812500000000000 0.0000000000000000 0.57811837628122087 -1.7406359952744337e-05 
0.57812500000000000 0.015625000000000000 0.0000000000000000 -6.2340317520373549e-06 -1.7362331849883839e-05 0.20669917433846421 1.2177610985180914e-07 -6.2610602159219406e-08 0.57812500000000000 0.015625000000000000 0.57811876596824796 0.015607637668150114 
0.59375000000000000 0.0000000000000000 0.0000000000000000 -6.6644802263255312e-06 -1.7801893654466536e-05 0.17973940254550261 1.1853138603714698e-07 0.0000000000000000 0.59375000000000000 0.0000000000000000 0.59374333551977365 -1.7801893654466536e-05 
0.59375000000000000 0.015625000000000000 0.0000000000000000 -6.2766556848054446e-06 -1.7762059158474323e-05 0.18808086353738906 1.1683677708011637e-07 -6.4269361728278866e-08 0.59375000000000000 0.015625000000000000 0.59374372334431513 0.015607237940841526 
0.60937500000000000 0.0000000000000000 0.0000000000000000 -6.7010264877363782e-06 -1.8195231429989082e-05 0.16194285115987930 1.1337501600931036e-07 0.0000000000000000 0.60937500000000000 0.0000000000000000 0.60936829897351230 -1.8195231429989082e-05 
0.60937500000000000 0.015625000000000000 0.0000000000000000 -6.3151909408545231e-06 -1.8159416241064196e-05 0.17024013658491446 1.1179365696194113e-07 -6.5778488792910035e-08 0.60937500000000000 0.015625000000000000 0.60936868480905915 0.015606840583758936 
0.62500000000000000 0.0000000000000000 0.0000000000000000 -6.7335387425631364e-06 -1.8586241718761087e-05 0.14495667048631780 1.0809532599470323e-07 0.0000000000000000 0.62500000000000000 0.0000000000000000 0.62499326646125741 -1.8586241718761087e-05 
0.62500000000000000 0.015625000000000000 0.0000000000000000 -6.3498121039092807e-06 -1.8554267253515449e-05 0.15319326301459260 1.0664327544945838e-07 -6.7117698878750409e-08 0.62500000000000000 0.015625000000000000 0.62499365018789621 0.015606445732746485 
0.64062500000000000 0.0000000000000000 0.0000000000000000 -6.7622032449893918e-06 -1.8974799765412446e-05 0.12879925091152691 1.0268900337909417e-07 0.0000000000000000 0.64062500000000000 0.0000000000000000 0.64061823779675497 -1.8974799765412446e-05 
0.64062500000000000 0.015625000000000000 0.0000000000000000 -6.3806978486700780e-06 -1.8946483028144380e-05 0.13695697806791307 1.0138284519359527e-07 -6.8266208883881591e-08 0.64062500000000000 0.015625000000000000 0.64061861930215136 0.015606053516971858 
0.65625000000000000 0.0000000000000000 0.0000000000000000 -6.7872114856126615e-06 -1.9360788592376618e-05 0.11348937880719752 9.7153216943062078e-08 0.0000000000000000 0.65625000000000000 0.0000000000000000 0.65624321278851439 -1.9360788592376618e-05 
0.65625000000000000 0.015625000000000000 0.0000000000000000 -6.4080310644942703e-06 -1.9335942055602706e-05 0.12154836452637945 9.6010363636316194e-08 -6.9202387322233648e-08 0.65625000000000000 0.015625000000000000 0.65624359196893556 0.015605664057944396 
0.67187500000000000 0.0000000000000000 0.0000000000000000 -6.8087603575413167e-06 -1.9744100020809275e-05 0.099046116650327365 9.1485787468592772e-08 0.0000000000000000 0.67187500000000000 0.0000000000000000 0.67186819123964236 -1.9744100020809275e-05 
0.67187500000000000 0.015625000000000000 0.0000000000000000 -6.4319989651154666e-06 -1.9722531518686386e-05 0.10698471301468195 9.0524788988007443e-08 -6.9903410510169300e-08 0.67187500000000000 0.015625000000000000 0.67186856800103489 0.015605277468481312 
0.68750000000000000 0.0000000000000000 0.0000000000000000 -6.8270523233008333e-06 -2.0124635761395229e-05 0.085488645325460744 8.5685446252103878e-08 0.0000000000000000 0.68750000000000000 0.0000000000000000 0.68749317294767665 -2.0124635761395229e-05 
0.68750000000000000 0.015625000000000000 0.0000000000000000 -6.4527931799981481e-06 -2.0106148402121799e-05 0.093283347721074328 8.4926307204975148e-08 -7.0344923739344471e-08 0.68750000000000000 0.015625000000000000 0.68749354720682010 0.015604893851597879 
0.70312500000000000 0.0000000000000000 0.0000000000000000 -6.8422955762765424e-06 -2.0502308598046176e-05 0.072836052347231242 7.9752201503157012e-08 0.0000000000000000 0.70312500000000000 0.0000000000000000 0.70311815770442376 -2.0502308598046176e-05 
0.70312500000000000 0.015625000000000000 0.0000000000000000 -6.4706098203219149e-06 -2.0486700704280995e-05 0.080461402111776228 7.9216708366678154e-08 -7.0500709419892649e-08 0.70312500000000000 0.015625000000000000 0.70311852939017971 0.015604513299295719 
0.71875000000000000 0.0000000000000000 0.0000000000000000 -6.8547041873396634e-06 -2.0877043689378992e-05 0.061107045933290943 7.3687840076203511e-08 0.0000000000000000 0.71875000000000000 0.0000000000000000 0.71874314529581262 -2.0877043689378992e-05 
0.71875000000000000 0.015625000000000000 0.0000000000000000 -6.4856495094778605e-06 -2.0864108779343479e-05 0.068535525985892534 7.3399897316789375e-08 -7.0342368499167905e-08 0.71875000000000000 0.015625000000000000 0.71874351435049055 0.015604135891220656 
0.73437500000000000 0.0000000000000000 0.0000000000000000 -6.8644982233230890e-06 -2.1248780015252283e-05 0.050319569756955312 6.7496601684044056e-08 0.0000000000000000 0.73437500000000000 0.0000000000000000 0.73436813550177671 -2.1248780015252283e-05 
0.73437500000000000 0.015625000000000000 0.0000000000000000 -6.4981173641573978e-06 -2.1238306841725530e-05 0.057521500940315662 6.7482571430545671e-08 -6.9839028020001177e-08 0.73437500000000000 0.015625000000000000 0.73436850188263580 0.015603761693158275 
0.75000000000000000 0.0000000000000000 0.0000000000000000 -6.8719038187562627e-06 -2.1617471998546628e-05 0.040490286491936027 6.1186075359628812e-08 0.0000000000000000 0.75000000000000000 0.0000000000000000 0.74999312809618124 -2.1617471998546628e-05 
0.75000000000000000 0.015625000000000000 0.0000000000000000 -6.5082229074013742e-06 -2.1609244668726020e-05 0.047433735791227637 6.1475107997181492e-08 -6.8957097863546180e-08 0.75000000000000000 0.015625000000000000 0.74999349177709262 0.015603390755331273 
0.76562500000000000 0.0000000000000000 0.0000000000000000 -6.8771531751960831e-06 -2.1983091335798245e-05 0.031633889580005292 5.4768384513697254e-08 0.0000000000000000 0.76562500000000000 0.0000000000000000 0.76561812284682473 -2.1983091335798245e-05 
0.76562500000000000 0.015625000000000000 0.0000000000000000 -6.5161798890818714e-06 -2.1976889542368718e-05 0.038284606559773046 5.5392714785205035e-08 -6.7660115667185001e-08 0.76562500000000000 0.015625000000000000 0.76561848382011088 0.015603023110457631 
0.78125000000000000 0.0000000000000000 0.0000000000000000 -6.8804844528074998e-06 -2.2345629074156014e-05 0.023762191740901623 4.8261745899875350e-08 0.0000000000000000 0.78125000000000000 0.0000000000000000 0.78124311951554715 -2.2345629074156014e-05 
0.78125000000000000 0.015625000000000000 0.0000000000000000 -6.5222059818852583e-06 -2.2341228477377702e-05 0.030083597256834686 4.9256907951022840e-08 -6.5908743877837609e-08 0.78125000000000000 0.015625000000000000 0.78124347779401815 0.015602658771522620 
0.79687500000000000 0.0000000000000000 0.0000000000000000 -6.8821415053745434e-06 -2.2705097976215137e-05 0.016882925670828858 4.1692514959171433e-08 0.0000000000000000 0.79687500000000000 0.0000000000000000 0.79686811785849476 -2.2705097976215137e-05 
0.79687500000000000 0.015625000000000000 0.0000000000000000 -6.5265223115681527e-06 -2.2702270789000422e-05 0.022836188297186057 4.3097390939816953e-08 -6.3661022406848695e-08 0.79687500000000000 0.015625000000000000 0.79686847347768841 0.015602297729211000 
0.81250000000000000 0.0000000000000000 0.0000000000000000 -6.8823733908731789e-06 -2.3061535218031459e-05 0.010998178009155863 3.5097837966064263e-08 0.0000000000000000 0.81250000000000000 0.0000000000000000 0.81249311762660914 -2.3061535218031459e-05 
0.81250000000000000 0.015625000000000000 0.0000000000000000 -6.5293527686376137e-06 -2.3060051061546687e-05 0.016542430258028717 3.6954397319674567e-08 -6.0873040619588340e-08 0.81250000000000000 0.015625000000000000 0.81249347064723132 0.015601939948938453 
0.82812500000000000 0.0000000000000000 0.0000000000000000 -6.8814335623858577e-06 -2.3415005467818257e-05 0.0061023649159741905 2.8529094329066613e-08 0.0000000000000000 0.82812500000000000 0.0000000000000000 0.82811811856643758 -2.3415005467818257e-05 
0.82812500000000000 0.015625000000000000 0.0000000000000000 -6.5309230342059695e-06 -2.3414632584903991e-05 0.011195135266328314 3.0881553093167415e-08 -5.7500291973539358e-08 0.82812500000000000 0.015625000000000000 0.82811846907696574 0.015601585367415098 
0.84375000000000000 0.0000000000000000 0.0000000000000000 -6.8795786042534535e-06 -2.3765604390789563e-05 0.0021796525803880465 2.2056118348024242e-08 0.0000000000000000 0.84375000000000000 0.0000000000000000 0.84374312042139576 -2.3765604390789563e-05 
0.84375000000000000 0.015625000000000000 0.0000000000000000 -6.5314592351008101e-06 -2.3766111329288605e-05 0.0067776234725043143 2.4949132127355665e-08 -5.3500106359464626e-08 0.84375000000000000 0.015625000000000000 0.84374346854076487 0.015601233888670711 
0.85937500000000000 0.0000000000000000 0.0000000000000000 -6.8770663194507199e-06 -2.4113462613736629e-05 -0.00079925636468544637 1.5772695751472282e-08 0.0000000000000000 0.85937500000000000 0.0000000000000000 0.85936812293368059 -2.4113462613736629e-05 
0.85937500000000000 0.015625000000000000 0.0000000000000000 -6.5311861218592762e-06 -2.4114620522506211e-05 0.0032609929961965084 1.9247679025839271e-08 -4.8835845941116803e-08 0.85937500000000000 0.015625000000000000 0.85936846881387818 0.015600885379477491 
0.87500000000000000 0.0000000000000000 0.0000000000000000 -6.8741528859165687e-06 -2.4458750148898177e-05 -0.0028809900880377207 9.8016410635872683e-09 0.0000000000000000 0.87500000000000000 0.0000000000000000 0.87499312584711408 -2.4458750148898177e-05 
0.87500000000000000 0.015625000000000000 0.0000000000000000 -6.5303246369791582e-06 -2.4460335867151585e-05 0.00060096092002269962 1.3890445278817556e-08 -4.3483665106492823e-08 0.87500000000000000 0.015625000000000000 0.87499346967536307 0.015600539664132848 
0.89062500000000000 0.0000000000000000 0.0000000000000000 -6.8710886669171295e-06 -2.4801681195739307e-05 -0.0041338925434630048 4.3036056009277691e-09 0.0000000000000000 0.89062500000000000 0.0000000000000000 0.89061812891133307 -2.4801681195739307e-05 
0.89062500000000000 0.015625000000000000 0.0000000000000000 -6.5290887078021246e-06 -2.4803481364092523e-05 -0.0012654962051791827 9.0160764609288623e-09 -3.7444107602204094e-08 0.89062500000000000 0.015625000000000000 0.89061847091129220 0.015600196518635907 
0.90625000000000000 0.0000000000000000 0.0000000000000000 -6.8681120585390414e-06 -2.5142519053538819e-05 -0.0046525440120273121 -5.2606156820745123e-10 0.0000000000000000 0.90625000000000000 0.0000000000000000 0.90624313188794148 -2.5142519053538819e-05 