# For a description of the Tecplot format see the Tecplot User's guide.
#
Variables=x,y,z,s_u,s_v,s_p,x,y,ref_u,ref_v,u,v
Zone f=fepoint, n=289, e=512, et=quadrilateral, c=black
0.00000 0.00000 0.00000 0.0000000000000000 0.0000000000000000 1.7314330570905954 0.0000000000000000 0.0000000000000000 0.0000000000000000 0.0000000000000000 0.0000000000000000 0.0000000000000000 
0.062500000000000000 0.0000000000000000 0.0000000000000000 -1.5928111358769125e-06 -3.2263503536523250e-06 1.4362959434032063 1.0856826213373393e-06 0.0000000000000000 0.062500000000000000 0.0000000000000000 0.062498407188864125 -3.2263503536523250e-06 
0.062500000000000000 0.062500000000000000 0.0000000000000000 -4.0277479984262127e-07 -2.0532826380497122e-06 1.4694491580905062 6.1655690843351550e-07 2.9893370601899253e-07 0.062500000000000000 0.062500000000000000 0.062499597225200154 0.062497946717361953 
0.0000000000000000 0.062500000000000000 0.0000000000000000 0.0000000000000000 0.0000000000000000 1.5289633626182322 0.0000000000000000 8.4593512200973458e-07 0.0000000000000000 0.062500000000000000 0.0000000000000000 0.062500000000000000 
0.12500000000000000 0.0000000000000000 0.0000000000000000 -2.6602527767908890e-06 -5.1428105917744720e-06 1.0776694922686907 4.2535832755159538e-07 0.0000000000000000 0.12500000000000000 0.0000000000000000 0.12499733974722321 -5.1428105917744720e-06 
0.12500000000000000 0.062500000000000000 0.0000000000000000 -1.3468704664285421e-06 -4.2124610763445041e-06 1.1520771580705180 4.3411248934656061e-07 -1.3434915331558272e-07 0.12500000000000000 0.062500000000000000 0.12499865312953355 0.062495787538923653 
0.18750000000000000 0.0000000000000000 0.0000000000000000 -3.5059114588573888e-06 -6.8166327259782596e-06 0.84691359209915051 3.1038551935373654e-07 0.0000000000000000 0.18750000000000000 0.0000000000000000 0.18749649408854116 -6.8166327259782596e-06 
0.18750000000000000 0.062500000000000000 0.0000000000000000 -2.1473101842928505e-06 -6.0599051115333510e-06 0.90017105311889001 3.3929705391072689e-07 -4.9620671157944430e-08 0.18750000000000000 0.062500000000000000 0.18749785268981570 0.062493940094888463 
0.25000000000000000 0.0000000000000000 0.0000000000000000 -4.2028002737504071e-06 -8.4227498425536157e-06 0.68329699049056869 2.3206988507430498e-07 0.0000000000000000 0.25000000000000000 0.0000000000000000 0.24999579719972628 -8.4227498425536157e-06 
0.25000000000000000 0.062500000000000000 0.0000000000000000 -2.8190068146737838e-06 -7.7990418503243765e-06 0.72197906930665356 2.3928912720915285e-07 -3.7636179047757883e-08 0.25000000000000000 0.062500000000000000 0.24999718099318533 0.062492200958149675 
0.31250000000000000 0.0000000000000000 0.0000000000000000 -4.7784686600321918e-06 -1.0008132501685552e-05 0.55549307151288196 1.9052284886019044e-07 0.0000000000000000 0.31250000000000000 0.0000000000000000 0.31249522153133996 -1.0008132501685552e-05 
0.31250000000000000 0.062500000000000000 0.0000000000000000 -3.3783931502188124e-06 -9.4953592059320597e-06 0.58703696180674925 1.9196455570821760e-07 -2.8981924239267458e-08 0.31250000000000000 0.062500000000000000 0.31249662160684982 0.062490504640794066 
0.37500000000000000 0.0000000000000000 0.0000000000000000 -5.2472614280125945e-06 -1.1584386887705474e-05 0.44900621558646076 1.6414220109723613e-07 0.0000000000000000 0.37500000000000000 0.0000000000000000 0.37499475273857197 -1.1584386887705474e-05 
0.37500000000000000 0.062500000000000000 0.0000000000000000 -3.8380981118552019e-06 -1.1168494300350424e-05 0.47760835593628731 1.6048818333762228e-07 -3.0336059288905584e-08 0.37500000000000000 0.062500000000000000 0.37499616190188817 0.062488831505699650 
0.43750000000000000 0.0000000000000000 0.0000000000000000 -5.6194600668784824e-06 -1.3150163273114283e-05 0.35732102330518284 1.4377776397483240e-07 0.0000000000000000 0.43750000000000000 0.0000000000000000 0.43749438053993311 -1.3150163273114283e-05 
0.43750000000000000 0.062500000000000000 0.0000000000000000 -4.2086234981199993e-06 -1.2820386747180767e-05 0.38494013879381955 1.3794937325619469e-07 -3.5653532119697970e-08 0.43750000000000000 0.062500000000000000 0.43749579137650185 0.062487179613252820 
0.50000000000000000 0.0000000000000000 0.0000000000000000 -5.9044019492130016e-06 -1.4698957203222705e-05 0.27763074575683405 1.2572698463035082e-07 0.0000000000000000 0.50000000000000000 0.0000000000000000 0.49999409559805080 -1.4698957203222705e-05 
0.50000000000000000 0.062500000000000000 0.0000000000000000 -4.4994703336931547e-06 -1.4445719009557733e-05 0.30494126083139522 1.1942946260147819e-07 -4.2267966815735213e-08 0.50000000000000000 0.062500000000000000 0.49999550052966629 0.062485554280990445 
0.56250000000000000 0.0000000000000000 0.0000000000000000 -6.1116435255085157e-06 -1.6222500782210477e-05 0.20882872075669609 1.0826259686505963e-07 0.0000000000000000 0.56250000000000000 0.0000000000000000 0.56249388835647451 -1.6222500782210477e-05 
0.56250000000000000 0.062500000000000000 0.0000000000000000 -4.7197749684474714e-06 -1.6036467377589156e-05 0.23577341831576815 1.0266605366561717e-07 -4.8400937248462074e-08 0.56250000000000000 0.062500000000000000 0.56249528022503170 0.062483963532622415 
0.62500000000000000 0.0000000000000000 0.0000000000000000 -6.2514310965194397e-06 -1.7712523330688452e-05 0.15055374548507894 9.0628026204076374e-08 0.0000000000000000 0.62500000000000000 0.0000000000000000 0.62499374856890344 -1.7712523330688452e-05 
0.62500000000000000 0.062500000000000000 0.0000000000000000 -4.8786647978617972e-06 -1.7584173207569858e-05 0.17663048877899881 8.6676613558867906e-08 -5.2853075922708000e-08 0.62500000000000000 0.062500000000000000 0.62499512133520219 0.062482415826792433 
0.68750000000000000 0.0000000000000000 0.0000000000000000 -6.3349281836269208e-06 -1.9161882004346561e-05 0.10271229713277234 7.2750500315101405e-08 0.0000000000000000 0.68750000000000000 0.0000000000000000 0.68749366507181653 -1.9161882004346561e-05 
0.68750000000000000 0.062500000000000000 0.0000000000000000 -4.9854675389577526e-06 -1.9081295434160397e-05 0.12711628696067365 7.1225522754811168e-08 -5.4676239349657417e-08 0.68750000000000000 0.062500000000000000 0.68749501453246109 0.062480918704565840 
0.75000000000000000 0.0000000000000000 0.0000000000000000 -6.3743518260382392e-06 -2.0565533780729843e-05 0.065210445155676824 5.4319527912611903e-08 0.0000000000000000 0.75000000000000000 0.0000000000000000 0.74999362564817396 -2.0565533780729843e-05 
0.75000000000000000 0.062500000000000000 0.0000000000000000 -5.0498522019581021e-06 -2.0522277740600339e-05 0.086911996158070784 5.6194144375889531e-08 -5.3050821932524971e-08 0.75000000000000000 0.062500000000000000 0.74999495014779793 0.062479477722259390 
0.81250000000000000 0.0000000000000000 0.0000000000000000 -6.3830188399312009e-06 -2.1921639366443885e-05 0.037779112587789321 3.7084534329247425e-08 0.0000000000000000 0.81250000000000000 0.0000000000000000 0.81249361698115996 -2.1921639366443885e-05 
0.81250000000000000 0.062500000000000000 0.0000000000000000 -5.0819451149004938e-06 -2.1904704967810096e-05 0.055603114096227063 4.2738077165446297e-08 -4.7182296331180181e-08 0.81250000000000000 0.062500000000000000 0.81249491805488494 0.062478095295032184 
0.87500000000000000 0.0000000000000000 0.0000000000000000 -6.3751496521023371e-06 -2.3232979942058946e-05 0.019829943274910958 1.8395071970947253e-08 0.0000000000000000 0.87500000000000000 0.0000000000000000 0.87499362485034793 -2.3232979942058946e-05 
0.87500000000000000 0.062500000000000000 0.0000000000000000 -5.0924329667329809e-06 -2.3230821444562019e-05 0.032640176237838402 2.8463454988644327e-08 -3.6747724945515209e-08 0.87500000000000000 0.062500000000000000 0.87499490756703324 0.062476769178555436 
0.93750000000000000 0.0000000000000000 0.0000000000000000 -6.3649156186533669e-06 -2.4508487040863761e-05 0.010233167699154453 7.3613597713620396e-09 0.0000000000000000 0.93750000000000000 0.0000000000000000 0.93749363508438133 -2.4508487040863761e-05 
0.93750000000000000 0.062500000000000000 0.0000000000000000 -5.0925902783484074e-06 -2.4509582352400862e-05 0.017437650723187370 2.2616848958933806e-08 -2.2425192394845469e-08 0.93750000000000000 0.062500000000000000 0.93749490740972163 0.062475490417647599 
1.0000000000000000 0.0000000000000000 0.0000000000000000 -6.3621651278546063e-06 -2.5761678148991030e-05 0.0069081317353127227 0.0000000000000000 0.0000000000000000 1.0000000000000000 0.0000000000000000 0.99999363783487216 -2.5761678148991030e-05 
1.0000000000000000 0.062500000000000000 0.0000000000000000 -5.0937349901196215e-06 -2.5758962960395508e-05 0.010241552563667112 0.0000000000000000 -7.4623704286152461e-09 1.0000000000000000 0.062500000000000000 0.99999490626500986 0.062474241037039607 
0.062500000000000000 0.12500000000000000 0.0000000000000000 -1.8568819421311042e-07 -1.6128780248479089e-06 1.2363056188568076 7.2167539924062398e-08 4.1481083065000831e-07 0.062500000000000000 0.12500000000000000 0.062499814311805790 0.12499838712197515 
0.0000000000000000 0.12500000000000000 0.0000000000000000 0.0000000000000000 0.0000000000000000 1.2007941859940734 0.0000000000000000 5.2811121684941046e-07 0.0000000000000000 0.12500000000000000 0.0000000000000000 0.12500000000000000 
0.12500000000000000 0.12500000000000000 0.0000000000000000 -6.3422313505882015e-07 -3.4622534272312489e-06 1.0905647399128824 3.4516256838968942e-07 2.3873273903819934e-07 0.12500000000000000 0.12500000000000000 0.12499936577686492 0.12499653774657275 
0.18750000000000000 0.12500000000000000 0.0000000000000000 -1.2421295960966350e-06 -5.3806393940333072e-06 0.88567129723158733 3.2091235877557249e-07 9.2202643414149888e-08 0.18750000000000000 0.12500000000000000 0.18749875787040390 0.12499461936060596 
0.25000000000000000 0.12500000000000000 0.0000000000000000 -1.8044769868239867e-06 -7.2194992027087171e-06 0.71547630827492503 2.3142079635460367e-07 4.8832469980063453e-08 0.25000000000000000 0.12500000000000000 0.24999819552301314 0.12499278050079730 
0.31250000000000000 0.12500000000000000 0.0000000000000000 -2.2920700797782429e-06 -9.0112853006444481e-06 0.58444291873624621 1.8443907815497142e-07 3.2967636855212517e-08 0.31250000000000000 0.12500000000000000 0.31249770792992021 0.12499098871469937 
0.37500000000000000 0.12500000000000000 0.0000000000000000 -2.7014767165919948e-06 -1.0771400809337911e-05 0.47994320085211789 1.5042809301599465e-07 1.7590607483205313e-08 0.37500000000000000 0.12500000000000000 0.37499729852328340 0.12498922859919066 
0.43750000000000000 0.12500000000000000 0.0000000000000000 -3.0362469549551890e-06 -1.2501631180708258e-05 0.39307132614065554 1.2772711660922610e-07 3.5377460531005216e-09 0.43750000000000000 0.12500000000000000 0.43749696375304498 0.12498749836881930 
0.50000000000000000 0.12500000000000000 0.0000000000000000 -3.3022698760991017e-06 -1.4196965885049039e-05 0.31894150080430533 1.1001730435004889e-07 -9.7058889114292607e-09 0.50000000000000000 0.12500000000000000 0.49999669773012384 0.12498580303411495 
0.56250000000000000 0.12500000000000000 0.0000000000000000 -3.5062952351923163e-06 -1.5849580260441320e-05 0.25503641782243708 9.4976460422475580e-08 -2.1382961992067786e-08 0.56250000000000000 0.12500000000000000 0.56249649370476484 0.12498415041973955 
0.62500000000000000 0.12500000000000000 0.0000000000000000 -3.6554274946693459e-06 -1.7451054104461047e-05 0.20002624985329956 8.1410002845598874e-08 -3.0875836475769280e-08 0.62500000000000000 0.12500000000000000 0.62499634457250519 0.12498254894589554 
0.68750000000000000 0.12500000000000000 0.0000000000000000 -3.7569917427613480e-06 -1.8993725707256640e-05 0.15308283623021943 6.9030455395786335e-08 -3.7591787585610017e-08 0.68750000000000000 0.12500000000000000 0.68749624300825729 0.12498100627429275 
0.75000000000000000 0.12500000000000000 0.0000000000000000 -3.8186000779888664e-06 -2.0471714863884252e-05 0.11350376000435174 5.7577455806058466e-08 -4.1002534103883665e-08 0.75000000000000000 0.12500000000000000 0.74999618139992197 0.12497952828513613 
0.81250000000000000 0.12500000000000000 0.0000000000000000 -3.8484001939194496e-06 -2.1881953962829486e-05 0.080553902763752447 4.8344307668185045e-08 -4.0528725279906809e-08 0.81250000000000000 0.12500000000000000 0.81249615159980604 0.12497811804603719 
0.87500000000000000 0.12500000000000000 0.0000000000000000 -3.8555556327312655e-06 -2.3225480533465431e-05 0.053558654564458678 3.7335844717038537e-08 -3.6170681414333446e-08 0.87500000000000000 0.12500000000000000 0.87499614444436713 0.12497677451946654 
0.93750000000000000 0.12500000000000000 0.0000000000000000 -3.8510366766264814e-06 -2.4509238568830329e-05 0.032437163035214885 3.6284194990108113e-08 -2.7558957820323803e-08 0.93750000000000000 0.12500000000000000 0.93749614896332323 0.12497549076143115 
1.0000000000000000 0.12500000000000000 0.0000000000000000 -3.8487941050481695e-06 -2.5748933619970675e-05 0.019781973964806177 0.0000000000000000 -1.8655289351535465e-08 1.0000000000000000 0.12500000000000000 0.99999615120589491 0.12497425106638003 
0.062500000000000000 0.18750000000000000 0.0000000000000000 -9.9743072002836957e-08 -1.3893413786703624e-06 0.97981383773051334 -2.0822898364796256e-09 3.8891795724788162e-07 0.062500000000000000 0.18750000000000000 0.062499900256927997 0.18749861065862136 
0.0000000000000000 0.18750000000000000 0.0000000000000000 0.0000000000000000 0.0000000000000000 0.92407313853070738 0.0000000000000000 4.3273072411256095e-07 0.0000000000000000 0.18750000000000000 0.0000000000000000 0.18750000000000000 
0.12500000000000000 0.18750000000000000 0.0000000000000000 -3.3598438247523068e-07 -3.0528323934465807e-06 0.92471095717393881 1.7090126659394960e-07 3.0417961833462154e-07 0.12500000000000000 0.18750000000000000 0.12499966401561753 0.18749694716760656 
0.18750000000000000 0.18750000000000000 0.0000000000000000 -6.8798521963040118e-07 -4.8750249441837864e-06 0.80572853757686314 2.1650123124116850e-07 1.7094389081689797e-07 0.18750000000000000 0.18750000000000000 0.18749931201478034 0.18749512497505583 
0.25000000000000000 0.18750000000000000 0.0000000000000000 -1.0914960185180123e-06 -6.7464745825481718e-06 0.67285370359474539 2.0013406951310662e-07 9.3400100146841401e-08 0.25000000000000000 0.18750000000000000 0.24999890850398152 0.18749325352541746 
0.31250000000000000 0.18750000000000000 0.0000000000000000 -1.4692361131192651e-06 -8.6007282291066087e-06 0.55854555876194123 1.6358331309607594e-07 5.8769392523554943e-08 0.31250000000000000 0.18750000000000000 0.31249853076388684 0.18749139927177086 
0.37500000000000000 0.18750000000000000 0.0000000000000000 -1.7972977367936993e-06 -1.0428439003813486e-05 0.46532430571644928 1.3329853957963870e-07 3.5305615608606393e-08 0.37500000000000000 0.18750000000000000 0.37499820270226319 0.18748957156099619 
0.43750000000000000 0.18750000000000000 0.0000000000000000 -2.0693237057289567e-06 -1.2223922426449849e-05 0.38821257983225821 1.1212680160589105e-07 1.6902792992482165e-08 0.43750000000000000 0.18750000000000000 0.43749793067629428 0.18748777607757353 
0.50000000000000000 0.18750000000000000 0.0000000000000000 -2.2858388065944085e-06 -1.3979628863332381e-05 0.32296877327848417 9.5855735073884897e-08 5.3377170250901750e-10 0.50000000000000000 0.18750000000000000 0.49999771416119337 0.18748602037113668 
0.56250000000000000 0.18750000000000000 0.0000000000000000 -2.4502798455626523e-06 -1.5686808077373084e-05 0.26692452911591896 8.2784554049008526e-08 -1.3786929029485100e-08 0.56250000000000000 0.18750000000000000 0.56249754972015442 0.18748431319192263 
0.62500000000000000 0.18750000000000000 0.0000000000000000 -2.5673635665977456e-06 -1.7336656655617439e-05 0.21845308954287765 7.1685894369398477e-08 -2.5868899446842920e-08 0.62500000000000000 0.18750000000000000 0.62499743263643337 0.18748266334334437 
0.68750000000000000 0.18750000000000000 0.0000000000000000 -2.6424468992692513e-06 -1.8921227471778888e-05 0.17642499449989588 6.2257592852792020e-08 -3.5354350178550250e-08 0.68750000000000000 0.18750000000000000 0.68749735755310060 0.18748107877252826 
0.75000000000000000 0.18750000000000000 0.0000000000000000 -2.6814143414124797e-06 -2.0434158981332061e-05 0.13985215124181746 5.4210592484589869e-08 -4.1918299731651917e-08 0.75000000000000000 0.18750000000000000 0.74999731858565866 0.18747956584101866 
0.81250000000000000 0.18750000000000000 0.0000000000000000 -2.6909561075602715e-06 -2.1871379503132070e-05 0.10774243894453078 4.8809300177272647e-08 -4.5127111417403950e-08 0.81250000000000000 0.18750000000000000 0.81249730904389239 0.18747812862049687 
0.87500000000000000 0.18750000000000000 0.0000000000000000 -2.6792454391854573e-06 -2.3231931999279427e-05 0.079264380719387809 4.1400604057283476e-08 -4.5036629969021288e-08 0.87500000000000000 0.18750000000000000 0.87499732075456083 0.18747676806800073 
0.93750000000000000 0.18750000000000000 0.0000000000000000 -2.6570935978459906e-06 -2.4519076724689079e-05 0.054564512409017683 4.5194701789101058e-08 -4.0455385936441537e-08 0.93750000000000000 0.18750000000000000 0.93749734290640230 0.18747548092327529 
1.0000000000000000 0.18750000000000000 0.0000000000000000 -2.6397138618309741e-06 -2.5742074954106807e-05 0.037390423414035721 0.0000000000000000 -3.6827883514380103e-08 1.0000000000000000 0.18750000000000000 0.99999736028613817 0.18747425792504591 
0.062500000000000000 0.25000000000000000 0.0000000000000000 -5.5482431079145854e-08 -1.2740289724957392e-06 0.75505764109655438 -5.1054825949443158e-08 3.2890480564983087e-07 0.062500000000000000 0.25000000000000000 0.062499944517568913 0.24999872597102749 
0.0000000000000000 0.25000000000000000 0.0000000000000000 0.0000000000000000 0.0000000000000000 0.69514308514997969 0.0000000000000000 3.5355523639675142e-07 0.0000000000000000 0.25000000000000000 0.0000000000000000 0.25000000000000000 
0.12500000000000000 0.25000000000000000 0.0000000000000000 -1.7703155440313357e-07 -2.8262679783293303e-06 0.74113352745870087 8.0582305682912592e-08 2.8673801894395109e-07 0.12500000000000000 0.25000000000000000 0.12499982296844560 0.24999717373202168 
0.18750000000000000 0.25000000000000000 0.0000000000000000 -3.6811221440070123e-07 -4.5685375982662002e-06 0.68090795081528643 1.2007421837952864e-07 2.1653475107664446e-07 0.18750000000000000 0.25000000000000000 0.18749963188778559 0.24999543146240175 
0.25000000000000000 0.25000000000000000 0.0000000000000000 -6.0703878493216616e-07 -6.4135827360872189e-06 0.59719754105861134 1.4232902128328998e-07 1.4460056267672026e-07 0.25000000000000000 0.25000000000000000 0.24999939296121507 0.24999358641726391 
0.31250000000000000 0.25000000000000000 0.0000000000000000 -8.5671353503152441e-07 -8.2933534055137479e-06 0.51167229893020127 1.2908228823126149e-07 9.1053659098635435e-08 0.31250000000000000 0.25000000000000000 0.31249914328646494 0.24999170664659445 
0.37500000000000000 0.25000000000000000 0.0000000000000000 -1.0835663481599903e-06 -1.0165504921777764e-05 0.43631879400293655 1.0966997512538346e-07 5.7850561963179927e-08 0.37500000000000000 0.25000000000000000 0.37499891643365185 0.24998983449507819 
0.43750000000000000 0.25000000000000000 0.0000000000000000 -1.2734222264853834e-06 -1.2010496808521827e-05 0.37255707180295922 9.2725861568142192e-08 3.3644916623373435e-08 0.43750000000000000 0.25000000000000000 0.43749872657777350 0.24998798950319148 
0.50000000000000000 0.25000000000000000 0.0000000000000000 -1.4218201535265894e-06 -1.3815056551004193e-05 0.31847466324778878 7.9165678944647822e-08 1.3892342966825896e-08 0.50000000000000000 0.25000000000000000 0.49999857817984644 0.24998618494344901 
0.56250000000000000 0.25000000000000000 0.0000000000000000 -1.5289517771228208e-06 -1.5567999392520182e-05 0.27205936272622716 6.8437098424581423e-08 -2.8730886650562332e-09 0.56250000000000000 0.25000000000000000 0.56249847104822293 0.24998443200060749 
0.62500000000000000 0.25000000000000000 0.0000000000000000 -1.5972350943857633e-06 -1.7259428418723032e-05 0.23178090225879885 5.9722609744205698e-08 -1.7196870578914892e-08 0.62500000000000000 0.25000000000000000 0.62499840276490559 0.24998274057158129 
0.68750000000000000 0.25000000000000000 0.0000000000000000 -1.6302267557285674e-06 -1.8880754267856892e-05 0.19643804818726981 5.2839505966208458e-08 -2.9152509688495156e-08 0.68750000000000000 0.25000000000000000 0.68749836977324430 0.24998111924573216 
0.75000000000000000 0.25000000000000000 0.0000000000000000 -1.6322948983873991e-06 -2.0424887402052485e-05 0.16492160484369700 4.7540545228661149e-08 -3.8730945272455993e-08 0.75000000000000000 0.25000000000000000 0.74999836770510164 0.24997957511259794 
0.81250000000000000 0.25000000000000000 0.0000000000000000 -1.6088315029552305e-06 -2.1886460650639395e-05 0.13609708743384705 4.5081274434877104e-08 -4.5732243525462775e-08 0.81250000000000000 0.25000000000000000 0.81249839116849720 0.24997811353934937 
0.87500000000000000 0.25000000000000000 0.0000000000000000 -1.5669570793586325e-06 -2.3262061979906225e-05 0.10898144287567424 4.0721362133336387e-08 -5.0326674337902870e-08 0.87500000000000000 0.25000000000000000 0.87499843304292069 0.24997673793802008 
0.93750000000000000 0.25000000000000000 0.0000000000000000 -1.5167452759405490e-06 -2.4550482127021114e-05 0.083651942933108750 4.8270603879146711e-08 -5.0967270890627618e-08 0.93750000000000000 0.25000000000000000 0.93749848325472407 0.24997544951787298 
1.0000000000000000 0.25000000000000000 0.0000000000000000 -1.4729817092416830e-06 -2.5753041724909889e-05 0.063603921855352560 0.0000000000000000 -5.2072651641087134e-08 1.0000000000000000 0.25000000000000000 0.99999852701829062 0.24997424695827508 
0.062500000000000000 0.31250000000000000 0.0000000000000000 -2.9132314185755718e-08 -1.2208008432983227e-06 0.56073900174414726 -7.3531283360412260e-08 2.8965634334617547e-07 0.062500000000000000 0.31250000000000000 0.062499970867685821 0.31249877919915670 
0.0000000000000000 0.31250000000000000 0.0000000000000000 0.0000000000000000 0.0000000000000000 0.49966295544443401 0.0000000000000000 3.0408308556268926e-07 0.0000000000000000 0.31250000000000000 0.0000000000000000 0.31250000000000000 
0.12500000000000000 0.31250000000000000 0.0000000000000000 -8.0027211991195325e-08 -2.7128161867389051e-06 0.56952681908996594 3.2262430577899160e-08 2.6240757225632420e-07 0.12500000000000000 0.31250000000000000 0.12499991997278802 0.31249728718381325 
0.18750000000000000 0.31250000000000000 0.0000000000000000 -1.6360728553301390e-07 -4.4042626758189298e-06 0.54519837004697402 5.7781321997978989e-08 2.1523967198742282e-07 0.18750000000000000 0.31250000000000000 0.18749983639271448 0.31249559573732416 
0.25000000000000000 0.31250000000000000 0.0000000000000000 -2.7520504050376146e-07 -6.2218611942230790e-06 0.50075423993509782 8.1896853248637990e-08 1.6214183489145919e-07 0.25000000000000000 0.31250000000000000 0.24999972479495949 0.31249377813880580 
0.31250000000000000 0.31250000000000000 0.0000000000000000 -3.9926640746032465e-07 -8.1027179244121355e-06 0.44758743678409774 8.5973781499522843e-08 1.1269867706999679e-07 0.31250000000000000 0.31250000000000000 0.31249960073359256 0.31249189728207560 
0.37500000000000000 0.31250000000000000 0.0000000000000000 -5.1672816522229211e-07 -9.9988179354721805e-06 0.39500435073585843 7.9688943373620050e-08 7.4493598800122002e-08 0.37500000000000000 0.31250000000000000 0.37499948327183480 0.31249000118206455 
0.43750000000000000 0.31250000000000000 0.0000000000000000 -6.1268401629712964e-07 -1.1877741831702546e-05 0.34785837822228555 6.9460512181312146e-08 4.5922856147951266e-08 0.43750000000000000 0.31250000000000000 0.43749938731598365 0.31248812225816830 
0.50000000000000000 0.31250000000000000 0.0000000000000000 -6.8021912294569564e-07 -1.3719060146246474e-05 0.30698469432205583 5.9950117455462869e-08 2.3343524865146450e-08 0.50000000000000000 0.31250000000000000 0.49999931978087703 0.31248628093985381 
0.56250000000000000 0.31250000000000000 0.0000000000000000 -7.1734501082315658e-07 -1.5508078826969137e-05 0.27166216687191019 5.2014753660743327e-08 4.5280319153750620e-09 0.56250000000000000 0.31250000000000000 0.56249928265498916 0.31248449192117306 
0.62500000000000000 0.31250000000000000 0.0000000000000000 -7.2472228549608218e-07 -1.7233198861071510e-05 0.24087769952788193 4.5653912728128227e-08 -1.1587417380883759e-08 0.62500000000000000 0.31250000000000000 0.62499927527771437 0.31248276680113896 
0.68750000000000000 0.31250000000000000 0.0000000000000000 -7.0443213478856552e-07 -1.8884871832853704e-05 0.21362581812444545 4.0937015026627857e-08 -2.5486950030618305e-08 0.68750000000000000 0.31250000000000000 0.68749929556786527 0.31248111512816706 
0.75000000000000000 0.31250000000000000 0.0000000000000000 -6.5950843049895765e-07 -2.0455117516077405e-05 0.18886488217618791 3.7764710090503983e-08 -3.7458327205523286e-08 0.75000000000000000 0.31250000000000000 0.74999934049156947 0.31247954488248392 
0.81250000000000000 0.31250000000000000 0.0000000000000000 -5.9404613373750746e-07 -2.1937186938884809e-05 0.16545096817988714 3.7392533262715570e-08 -4.7536610690888861e-08 0.81250000000000000 0.31250000000000000 0.81249940595386627 0.31247806281306106 
0.87500000000000000 0.31250000000000000 0.0000000000000000 -5.1381892459718067e-07 -2.3325178512931828e-05 0.14228247441791417 3.5496199486256180e-08 -5.5994986272653118e-08 0.87500000000000000 0.31250000000000000 0.87499948618107537 0.31247667482148705 
0.93750000000000000 0.31250000000000000 0.0000000000000000 -4.2738850903172150e-07 -2.4613465312106696e-05 0.11911888122746579 4.5864352255422301e-08 -6.1016357455929202e-08 0.93750000000000000 0.31250000000000000 0.93749957261149108 0.31247538653468787 
1.0000000000000000 0.31250000000000000 0.0000000000000000 -3.4760081836027812e-07 -2.5795749540801106e-05 0.097986181188617863 0.0000000000000000 -6.6332838061349561e-08 1.0000000000000000 0.31250000000000000 0.99999965239918165 0.31247420425045919 
0.062500000000000000 0.37500000000000000 0.0000000000000000 -1.1530272177327683e-08 -1.2066458602542858e-06 0.38844943809867122 -9.0471082965613546e-08 2.6218214569536379e-07 0.062500000000000000 0.37500000000000000 0.062499988469727825 0.37499879335413983 
0.0000000000000000 0.37500000000000000 0.0000000000000000 0.0000000000000000 0.0000000000000000 0.32577539272763367 0.0000000000000000 2.7437819035653999e-07 0.0000000000000000 0.37500000000000000 0.0000000000000000 0.37500000000000000 
0.12500000000000000 0.37500000000000000 0.0000000000000000 -1.3701368240425995e-08 -2.6759937378865016e-06 0.41306846697421645 -2.6685283396933225e-09 2.3959398334729890e-07 0.12500000000000000 0.37500000000000000 0.12499998629863175 0.37499732400626212 
0.18750000000000000 0.37500000000000000 0.0000000000000000 -1.8688772877550201e-08 -4.3448897469109598e-06 0.41341106577561176 1.3164795589861103e-08 2.0432217604469179e-07 0.18750000000000000 0.37500000000000000 0.18749998131122711 0.37499565511025307 
0.25000000000000000 0.37500000000000000 0.0000000000000000 -2.9899684861056406e-08 -6.1481006239985933e-06 0.39805793822013019 3.4832106549725142e-08 1.6404974065065326e-07 0.25000000000000000 0.37500000000000000 0.24999997010031513 0.37499385189937601 
0.31250000000000000 0.37500000000000000 0.0000000000000000 -4.3930961490864046e-08 -8.0274683944973974e-06 0.37326804673948072 4.3799051603227232e-08 1.2290075289997142e-07 0.31250000000000000 0.37500000000000000 0.31249995606903852 0.37499197253160549 
0.37500000000000000 0.37500000000000000 0.0000000000000000 -5.3465475557009493e-08 -9.9353519122633991e-06 0.34451623579209784 4.6252520870214991e-08 8.5904790626635497e-08 0.37500000000000000 0.37500000000000000 0.37499994653452445 0.37499006464808776 
0.43750000000000000 0.37500000000000000 0.0000000000000000 -5.0611695970198925e-08 -1.1835578582853912e-05 0.31601599640066957 4.3298153609906968e-08 5.5428932225797647e-08 0.43750000000000000 0.37500000000000000 0.43749994938830400 0.37498816442141708 
0.50000000000000000 0.37500000000000000 0.0000000000000000 -2.9761172534707524e-08 -1.3702358278647137e-05 0.28998687901681636 3.8610073796583373e-08 3.0819515566772921e-08 0.50000000000000000 0.37500000000000000 0.49999997023882742 0.37498629764172137 
0.56250000000000000 0.37500000000000000 0.0000000000000000 1.1457649865218586e-08 -1.5517596760656486e-05 0.26697852016699969 3.3922248298756287e-08 1.0348759918524731e-08 0.56250000000000000 0.37500000000000000 0.56250001145764983 0.37498448240323934 
0.62500000000000000 0.37500000000000000 0.0000000000000000 7.3231510191312833e-08 -1.7267854890496893e-05 0.24673345768442115 2.9980128785360520e-08 -7.1870098110493636e-09 0.62500000000000000 0.37500000000000000 0.62500007323151019 0.37498273214510952 
0.68750000000000000 0.37500000000000000 0.0000000000000000 1.5447742103624023e-07 -1.8942546306065455e-05 0.22866636742301663 2.7170369131138531e-08 -2.2566608117312373e-08 0.68750000000000000 0.37500000000000000 0.68750015447742108 0.37498105745369387 
0.75000000000000000 0.37500000000000000 0.0000000000000000 2.5328515125580485e-07 -2.0532835799930516e-05 0.21198234008256298 2.5624167820842661e-08 -3.6329892634332420e-08 0.75000000000000000 0.37500000000000000 0.75000025328515119 0.37497946716420000 
0.81250000000000000 0.37500000000000000 0.0000000000000000 3.6688920758078435e-07 -2.2030768386309645e-05 0.19566250616900427 2.6605387254848924e-08 -4.8745712608388905e-08 0.81250000000000000 0.37500000000000000 0.81250036688920757 0.37497796923161369 
0.87500000000000000 0.37500000000000000 0.0000000000000000 4.9119411496637035e-07 -2.3428327315618657e-05 0.17853996243986511 2.6627002179313945e-08 -6.0166507040735281e-08 0.87500000000000000 0.37500000000000000 0.87500049119411483 0.37497657167268444 