# For a description of the Tecplot format see the Tecplot User's guide.
#
Variables=x,y,z,s_u,s_v,s_p,x,y,ref_u,ref_v,u,v
Zone f=fepoint, n=4225, e=8192, et=quadrilateral, c=black
0.00000 0.00000 0.00000 0.0000000000000000 0.0000000000000000 3.3892387974003042 0.0000000000000000 0.0000000000000000 0.0000000000000000 0.0000000000000000 0.0000000000000000 0.0000000000000000 
0.015625000000000000 0.0000000000000000 0.0000000000000000 -6.9593945945904915e-07 -1.5107508862749216e-06 2.8384616123475706 7.1424319064728882e-06 0.0000000000000000 0.015625000000000000 0.0000000000000000 0.015624304060540542 -1.5107508862749216e-06 
0.015625000000000000 0.015625000000000000 0.0000000000000000 -1.7977051062174939e-07 -9.7221639484366255e-07 2.9447986276766840 4.7348282838481588e-06 1.5259319442326917e-06 0.015625000000000000 0.015625000000000000 0.015624820229489378 0.015624027783605157 
0.0000000000000000 0.015625000000000000 0.0000000000000000 0.0000000000000000 0.0000000000000000 3.1328969295132012 0.0000000000000000 4.1892826110141247e-06 0.0000000000000000 0.015625000000000000 0.0000000000000000 0.015625000000000000 
0.031250000000000000 0.0000000000000000 0.0000000000000000 -1.1478227462917143e-06 -2.3372800396765618e-06 2.2249025045868538 3.5971687363086323e-06 0.0000000000000000 0.031250000000000000 0.0000000000000000 0.031248852177253709 -2.3372800396765618e-06 
0.031250000000000000 0.015625000000000000 0.0000000000000000 -6.1867455284158665e-07 -1.9006801585915973e-06 2.3761924754987196 2.7805690853572672e-06 -1.0545928144137724e-06 0.031250000000000000 0.015625000000000000 0.031249381325447158 0.015623099319841406 
0.046875000000000000 0.0000000000000000 0.0000000000000000 -1.5142751846734772e-06 -2.9833968505173922e-06 1.8278946211795286 1.9788690936138874e-06 0.0000000000000000 0.046875000000000000 0.0000000000000000 0.046873485724815332 -2.9833968505173922e-06 
0.046875000000000000 0.015625000000000000 0.0000000000000000 -1.0052020311799850e-06 -2.6126361691633164e-06 1.9490447383407099 2.1361951191821792e-06 -7.1736070852276331e-07 0.046875000000000000 0.015625000000000000 0.046873994797968825 0.015622387363830837 
0.062500000000000000 0.0000000000000000 0.0000000000000000 -1.8362299071921203e-06 -3.5472450298310950e-06 1.5807500950357509 1.2704948778087575e-06 0.0000000000000000 0.062500000000000000 0.0000000000000000 0.062498163770092797 -3.5472450298310950e-06 
0.062500000000000000 0.015625000000000000 0.0000000000000000 -1.3505483192954636e-06 -3.2187206083265371e-06 1.6680287837024155 1.4288698729741304e-06 -6.2384312155019025e-07 0.062500000000000000 0.015625000000000000 0.062498649451680703 0.015621781279391676 
0.078125000000000000 0.0000000000000000 0.0000000000000000 -2.1301759065897022e-06 -4.0632719681079294e-06 1.4148725601833902 8.6974686748344647e-07 0.0000000000000000 0.078125000000000000 0.0000000000000000 0.078122869824093416 -4.0632719681079294e-06 
0.078125000000000000 0.015625000000000000 0.0000000000000000 -1.6650439890414400e-06 -3.7641265393319729e-06 1.4779740194698221 1.0001165693861416e-06 -4.5317973723876026e-07 0.078125000000000000 0.015625000000000000 0.078123334956010967 0.015621235873460667 
0.093750000000000000 0.0000000000000000 0.0000000000000000 -2.4040669526933727e-06 -4.5484551193036368e-06 1.2955371910492175 6.4223317147193173e-07 0.0000000000000000 0.093750000000000000 0.0000000000000000 0.093747595933047309 -4.5484551193036368e-06 
0.093750000000000000 0.015625000000000000 0.0000000000000000 -1.9554762996128904e-06 -4.2712884078434662e-06 1.3423865371088215 7.4300308007503227e-07 -3.3941482911632805e-07 0.093750000000000000 0.015625000000000000 0.093748044523700391 0.015620728711592159 
0.10937500000000000 0.0000000000000000 0.0000000000000000 -2.6622066776639320e-06 -5.0125409797950221e-06 1.2040017449878897 5.0652360994817654e-07 0.0000000000000000 0.10937500000000000 0.0000000000000000 0.10937233779332234 -5.0125409797950221e-06 
0.10937500000000000 0.015625000000000000 0.0000000000000000 -2.2264522117492334e-06 -4.7528405346781468e-06 1.2398065144798101 5.8183086596097331e-07 -2.5389348053492781e-07 0.10937500000000000 0.015625000000000000 0.10937277354778825 0.015620247159465321 
0.12500000000000000 0.0000000000000000 0.0000000000000000 -2.9071582857665717e-06 -5.4617072081546119e-06 1.1298497974569823 4.2086481569032081e-07 0.0000000000000000 0.12500000000000000 0.0000000000000000 0.12499709284171423 -5.4617072081546119e-06 
0.12500000000000000 0.015625000000000000 0.0000000000000000 -2.4811789020285734e-06 -5.2165747350039282e-06 1.1579622237155354 4.7675101233155447e-07 -1.9130045029168648e-07 0.12500000000000000 0.015625000000000000 0.12499751882109798 0.015619783425264997 
0.14062500000000000 0.0000000000000000 0.0000000000000000 -3.1405635928593045e-06 -5.9001174970666046e-06 1.0670966742765142 3.6403074328714661e-07 0.0000000000000000 0.14062500000000000 0.0000000000000000 0.14062185943640715 -5.9001174970666046e-06 
0.14062500000000000 0.015625000000000000 0.0000000000000000 -2.7219360048892202e-06 -5.6676015200013182e-06 1.0897115610896397 4.0570341475548863e-07 -1.4480524214958963e-07 0.14062500000000000 0.015625000000000000 0.14062227806399510 0.015619332398479999 
0.15625000000000000 0.0000000000000000 0.0000000000000000 -3.3635385405011683e-06 -6.3306964555878889e-06 1.0121557123716187 3.2458705959935310e-07 0.0000000000000000 0.15625000000000000 0.0000000000000000 0.15624663646145950 -6.3306964555878889e-06 
0.15625000000000000 0.015625000000000000 0.0000000000000000 -2.9503790372207260e-06 -6.1094279067868925e-06 1.0307493649023007 3.5582887056199779e-07 -1.0988132950391599e-07 0.15625000000000000 0.015625000000000000 0.15624704962096278 0.015618890572093215 
0.17187500000000000 0.0000000000000000 0.0000000000000000 -3.5768790832360846e-06 -6.7555564503677499e-06 0.96278521037942311 2.9610089579763190e-07 0.0000000000000000 0.17187500000000000 0.0000000000000000 0.17187142312091677 -6.7555564503677499e-06 
0.17187500000000000 0.015625000000000000 0.0000000000000000 -3.1677349610142707e-06 -6.5445399580988437e-06 0.97838160766500826 3.1962436268211563e-07 -8.3414463408570439e-08 0.17187500000000000 0.015625000000000000 0.17187183226503899 0.015618455460041902 
0.18750000000000000 0.0000000000000000 0.0000000000000000 -3.7811760109166081e-06 -7.1762520087790016e-06 0.91752757161259868 2.7480417854341326e-07 0.0000000000000000 0.18750000000000000 0.0000000000000000 0.18749621882398912 -7.1762520087790016e-06 
0.18750000000000000 0.015625000000000000 0.0000000000000000 -3.3749315332415662e-06 -6.9747409704582055e-06 0.93085802409280827 2.9254500672228130e-07 -6.3250326573213776e-08 0.18750000000000000 0.015625000000000000 0.18749662506846676 0.015618025259029542 
0.20312500000000000 0.0000000000000000 0.0000000000000000 -3.9768829614863810e-06 -7.5939404280550232e-06 0.87540117433957942 2.5839082422363136e-07 0.0000000000000000 0.20312500000000000 0.0000000000000000 0.20312102311703850 -7.5939404280550232e-06 
0.20312500000000000 0.015625000000000000 0.0000000000000000 -3.5726843808508173e-06 -7.4013590453933210e-06 0.88700160963811758 2.7173761228469263e-07 -4.7872117574493996e-08 0.20312500000000000 0.015625000000000000 0.20312142731561919 0.015617598640954607 
0.21875000000000000 0.0000000000000000 0.0000000000000000 -4.1643588819400419e-06 -8.0094878929310551e-06 0.83572498232079695 2.4539003119606664e-07 0.0000000000000000 0.21875000000000000 0.0000000000000000 0.21874583564111805 -8.0094878929310551e-06 
0.21875000000000000 0.015625000000000000 0.0000000000000000 -3.7615566072897979e-06 -7.8253806356785418e-06 0.84599684681897802 2.5535088973545956e-07 -3.6188300996425223e-08 0.21875000000000000 0.015625000000000000 0.21874623844339272 0.015617174619364321 
0.23437500000000000 0.0000000000000000 0.0000000000000000 -4.3438957671371258e-06 -8.4235421907220107e-06 0.79801491915283262 2.3482801557713910e-07 0.0000000000000000 0.23437500000000000 0.0000000000000000 0.23437065610423283 -8.4235421907220107e-06 
0.23437500000000000 0.015625000000000000 0.0000000000000000 -3.9420002704479001e-06 -8.2475399126927054e-06 0.80726444430299515 2.4214516009281395e-07 -2.7396989165833884e-08 0.23437500000000000 0.015625000000000000 0.23437105799972954 0.015616752460087308 
0.25000000000000000 0.0000000000000000 0.0000000000000000 -4.5157374914172437e-06 -8.8365840690091267e-06 0.76192031235500102 2.2603838832857677e-07 0.0000000000000000 0.25000000000000000 0.0000000000000000 0.24999548426250859 -8.8365840690091267e-06 
0.25000000000000000 0.015625000000000000 0.0000000000000000 -4.1143857117010844e-06 -8.6683806082512052e-06 0.77038459352333433 2.3126651847176715e-07 -2.0897519762247538e-08 0.25000000000000000 0.015625000000000000 0.24999588561428829 0.015616331619391749 
0.26562500000000000 0.0000000000000000 0.0000000000000000 -4.6800930091761759e-06 -9.2489644553122327e-06 0.72718349721487618 2.1855198927081035e-07 0.0000000000000000 0.26562500000000000 0.0000000000000000 0.26562031990699081 -9.2489644553122327e-06 
0.26562500000000000 0.015625000000000000 0.0000000000000000 -4.2790226188070332e-06 -9.0883000580046103e-06 0.73504830401148658 2.2211199869571270e-07 -1.6231985883553297e-08 0.26562500000000000 0.015625000000000000 0.26562072097738115 0.015615911699941995 
0.28125000000000000 0.0000000000000000 0.0000000000000000 -4.8371458543820707e-06 -9.6609320412557851e-06 0.69361328078101536 2.1203050430354458e-07 0.0000000000000000 0.28125000000000000 0.0000000000000000 0.28124516285414564 -9.6609320412557851e-06 
0.28125000000000000 0.015625000000000000 0.0000000000000000 -4.4361753779358849e-06 -9.5075813618154055e-06 0.70102553243083021 2.1424653485777862e-07 -1.3045730409854477e-08 0.28125000000000000 0.015625000000000000 0.28124556382462207 0.015615492418638187 
0.29687500000000000 0.0000000000000000 0.0000000000000000 -4.9870611236407675e-06 -1.0072654133092405e-05 0.66106698550149412 2.0622504306188153e-07 0.0000000000000000 0.29687500000000000 0.0000000000000000 0.29687001293887638 -1.0072654133092405e-05 
0.29687500000000000 0.015625000000000000 0.0000000000000000 -4.5860744193747347e-06 -9.9264173860252777e-06 0.66814368912388655 2.0735030894996931e-07 -1.1060104093493744e-08 0.29687500000000000 0.015625000000000000 0.29687041392558061 0.015615073582613976 
0.31250000000000000 0.0000000000000000 0.0000000000000000 -5.1299906976473496e-06 -1.0484232691827102e-05 0.62943797530682533 2.0094943952438657e-07 0.0000000000000000 0.31250000000000000 0.0000000000000000 0.31249487000930237 -1.0484232691827102e-05 
0.31250000000000000 0.015625000000000000 0.0000000000000000 -4.7289247098750345e-06 -1.0344929025838578e-05 0.63627275960279961 2.0118443562480647e-07 -1.0053315003684061e-08 0.31250000000000000 0.015625000000000000 0.31249527107529013 0.015614655070974162 
0.32812500000000000 0.0000000000000000 0.0000000000000000 -5.2660771985062681e-06 -1.0895716868851090e-05 0.59864678886843459 1.9606252506552138e-07 0.0000000000000000 0.32812500000000000 0.0000000000000000 0.32811973392280147 -1.0895716868851090e-05 
0.32812500000000000 0.015625000000000000 0.0000000000000000 -4.8649121827320221e-06 -1.0763179340456153e-05 0.60531476561545527 1.9556802629541919e-07 -9.8467247135208895e-09 0.32812500000000000 0.015625000000000000 0.32812013508781729 0.015614236820659544 
0.34375000000000000 0.0000000000000000 0.0000000000000000 -5.3954570208006230e-06 -1.1307112943017186e-05 0.56863470984812892 1.9145604082826699e-07 0.0000000000000000 0.34375000000000000 0.0000000000000000 0.34374460454297923 -1.1307112943017186e-05 
0.34375000000000000 0.015625000000000000 0.0000000000000000 -4.9942086563079427e-06 -1.1181184662292272e-05 0.57519614854013024 1.9036250252549992e-07 -1.0294881879810408e-08 0.34375000000000000 0.015625000000000000 0.34374500579134365 0.015613818815337707 
0.35937500000000000 0.0000000000000000 0.0000000000000000 -5.5182626720930943e-06 -1.1718392299831284e-05 0.53935902321096785 1.8704619669338447e-07 0.0000000000000000 0.35937500000000000 0.0000000000000000 0.35936948173732791 -1.1718392299831284e-05 
0.35937500000000000 0.015625000000000000 0.0000000000000000 -5.1169756299902644e-06 -1.1598923448621842e-05 0.54586216765159035 1.8546064086569365e-07 -1.1278165214755436e-08 0.35937500000000000 0.015625000000000000 0.35936988302437006 0.015613401076551377 
0.37500000000000000 0.0000000000000000 0.0000000000000000 -5.6346245911842027e-06 -1.2129497913862557e-05 0.51078946324154206 1.8276764989511499e-07 0.0000000000000000 0.37500000000000000 0.0000000000000000 0.37499436537540881 -1.2129497913862557e-05 
0.37500000000000000 0.015625000000000000 0.0000000000000000 -5.2333672363424790e-06 -1.2016343422122960e-05 0.51727271731862046 1.8077877517442630e-07 -1.2697277089524707e-08 0.37500000000000000 0.015625000000000000 0.37499476663276360 0.015612983656577878 
0.39062500000000000 0.0000000000000000 0.0000000000000000 -5.7446725668994050e-06 -1.2540349671654997e-05 0.48290552018629107 1.7856912693673966e-07 0.0000000000000000 0.39062500000000000 0.0000000000000000 0.39061925532743308 -1.2540349671654997e-05 
0.39062500000000000 0.015625000000000000 0.0000000000000000 -5.3435325520655977e-06 -1.2433367395877250e-05 0.48939916266870842 1.7625114929006243e-07 -1.4469068208662585e-08 0.39062500000000000 0.015625000000000000 0.39061965646744795 0.015612566632604125 
0.40625000000000000 0.0000000000000000 0.0000000000000000 -5.8485368486516011e-06 -1.2950848785624977e-05 0.45569437635937593 1.7441018514165490e-07 0.0000000000000000 0.40625000000000000 0.0000000000000000 0.40624415146315135 -1.2950848785624977e-05 
0.40625000000000000 0.015625000000000000 0.0000000000000000 -5.4476174170946882e-06 -1.2849898073867565e-05 0.46222191895249365 1.7182576168873694e-07 -1.6523331782407399e-08 0.40625000000000000 0.015625000000000000 0.40624455238258289 0.015612150101926131 
0.42187500000000000 0.0000000000000000 0.0000000000000000 -5.9463490177555241e-06 -1.3360881487672320e-05 0.42914931101543369 1.7025877969837018e-07 0.0000000000000000 0.42187500000000000 0.0000000000000000 0.42186905365098221 -1.3360881487672320e-05 
0.42187500000000000 0.015625000000000000 0.0000000000000000 -5.5457658733551784e-06 -1.3265822044420338e-05 0.43572858248537244 1.6746126327410896e-07 -1.8800311803267366e-08 0.42187500000000000 0.015625000000000000 0.42186945423412664 0.015611734177955581 
0.43750000000000000 0.0000000000000000 0.0000000000000000 -6.0382426724431700e-06 -1.3770322146701273e-05 0.40326845931564786 1.6608941002453090e-07 0.0000000000000000 0.43750000000000000 0.0000000000000000 0.43749396175732763 -1.3770322146701273e-05 
0.43750000000000000 0.015625000000000000 0.0000000000000000 -5.6381213075385645e-06 -1.3681013131461306e-05 0.40991247648130064 1.6312461055907384e-07 -2.1248742579011488e-08 0.43750000000000000 0.015625000000000000 0.43749436187869245 0.015611318986868539 
0.45312500000000000 0.0000000000000000 0.0000000000000000 -6.1243539677952044e-06 -1.4179035921750955e-05 0.37805384221040533 1.6188168962125772e-07 0.0000000000000000 0.45312500000000000 0.0000000000000000 0.45311887564603220 -1.4179035921750955e-05 
0.45312500000000000 0.015625000000000000 0.0000000000000000 -5.7248273624777949e-06 -1.4095335230395240e-05 0.38477151295428880 1.5878926898321247e-07 -2.3824286962100964e-08 0.45312500000000000 0.015625000000000000 0.45311927517263756 0.015610904664769604 
0.46875000000000000 0.0000000000000000 0.0000000000000000 -6.2048220430722586e-06 -1.4586881038468818e-05 0.35351060596214595 1.5761923037994302e-07 0.0000000000000000 0.46875000000000000 0.0000000000000000 0.46874379517795695 -1.4586881038468818e-05 
0.46875000000000000 0.015625000000000000 0.0000000000000000 -5.8060286671116075e-06 -1.4508644727554604e-05 0.36030729813546447 1.5443382283266802e-07 -2.6488276035446215e-08 0.46875000000000000 0.015625000000000000 0.46874419397133288 0.015610491355272446 
0.48437500000000000 0.0000000000000000 0.0000000000000000 -6.2797893623310532e-06 -1.4993710758823288e-05 0.32964642547243783 1.5328876399730573e-07 0.0000000000000000 0.48437500000000000 0.0000000000000000 0.48436872021063765 -1.4993710758823288e-05 
0.48437500000000000 0.015625000000000000 0.0000000000000000 -5.8818714241201729e-06 -1.4920792581554971e-05 0.33652442734246701 1.5004089011203645e-07 -2.9206678122196326e-08 0.48437500000000000 0.015625000000000000 0.48436911812857586 0.015610079207418444 
0.50000000000000000 0.0000000000000000 0.0000000000000000 -6.3494019891437543e-06 -1.5399375100576179e-05 0.30647103659313957 1.4887944503859963e-07 0.0000000000000000 0.50000000000000000 0.0000000000000000 0.49999365059801087 -1.5399375100576179e-05 
0.50000000000000000 0.015625000000000000 0.0000000000000000 -5.9525038860498022e-06 -1.5331626129530401e-05 0.31342992840781403 1.4559626961052899e-07 -3.1949243027936435e-08 0.50000000000000000 0.015625000000000000 0.49999404749611392 0.015609668373870469 
0.51562500000000000 0.0000000000000000 0.0000000000000000 -6.4138098122851934e-06 -1.5803722352948965e-05 0.28399587053417802 1.4438229552000537e-07 0.0000000000000000 0.51562500000000000 0.0000000000000000 0.51561858619018774 -1.5803722352948965e-05 
0.51562500000000000 0.015625000000000000 0.0000000000000000 -6.0180767443916371e-06 -1.5740990669694125e-05 0.29103282224683197 1.4108826763143737e-07 -3.4688780497993927e-08 0.51562500000000000 0.015625000000000000 0.51561898192325561 0.015609259009330306 
0.53125000000000000 0.0000000000000000 0.0000000000000000 -6.4731667361122113e-06 -1.6206600427286419e-05 0.26223376922781538 1.3978976185897218e-07 0.0000000000000000 0.53125000000000000 0.0000000000000000 0.53124352683326392 -1.6206600427286419e-05 
0.53125000000000000 0.015625000000000000 0.0000000000000000 -6.0787434511190480e-06 -1.6148730862989549e-05 0.26934377600882414 1.3650716628931359e-07 -3.7400541444741109e-08 0.53125000000000000 0.015625000000000000 0.53124392125654885 0.015608851269137011 
0.54687500000000000 0.0000000000000000 0.0000000000000000 -6.5276308468149764e-06 -1.6607858075750203e-05 0.24119876467869603 1.3509536303390157e-07 0.0000000000000000 0.54687500000000000 0.0000000000000000 0.54686847236915315 -1.6607858075750203e-05 
0.54687500000000000 0.015625000000000000 0.0000000000000000 -6.1346604882466845e-06 -1.6554691990059168e-05 0.24837482924129359 1.3184480571251716e-07 -4.0061677530073699e-08 0.54687500000000000 0.015625000000000000 0.54686886533951184 0.015608445308009941 
0.56250000000000000 0.0000000000000000 0.0000000000000000 -6.5773645636103086e-06 -1.7007346006732843e-05 0.22090590833237136 1.3029341476291120e-07 0.0000000000000000 0.56250000000000000 0.0000000000000000 0.56249342263543634 -1.7007346006732843e-05 
0.56250000000000000 0.015625000000000000 0.0000000000000000 -6.1859875977763975e-06 -1.6958721094861542e-05 0.22813917710626430 1.2709426026565561e-07 -4.2650759912547771e-08 0.56250000000000000 0.015625000000000000 0.56249381401240217 0.015608041278905138 
0.57812500000000000 0.0000000000000000 0.0000000000000000 -6.6225347821475369e-06 -1.7404917922457311e-05 0.20137113861402875 1.2537881911982788e-07 0.0000000000000000 0.57812500000000000 0.0000000000000000 0.57811837746521788 -1.7404917922457311e-05 
0.57812500000000000 0.015625000000000000 0.0000000000000000 -6.2328879817361864e-06 -1.7360668042646829e-05 0.20865099726165992 1.2224959480955731e-07 -4.5147341849625470e-08 0.57812500000000000 0.015625000000000000 0.57811876711201826 0.015607639331957355 
0.59375000000000000 0.0000000000000000 0.0000000000000000 -6.6633130158099300e-06 -1.7800431501893589e-05 0.18261117620867418 1.2034691274133812e-07 0.0000000000000000 0.59375000000000000 0.0000000000000000 0.59374333668698420 -1.7800431501893589e-05 
0.59375000000000000 0.015625000000000000 0.0000000000000000 -6.2755284797394445e-06 -1.7760386517400367e-05 0.18992530878990407 1.1730569171255726e-07 -4.7531552748071654e-08 0.59375000000000000 0.015625000000000000 0.59374372447152013 0.015607239613482598 
0.60937500000000000 0.0000000000000000 0.0000000000000000 -6.6998755391357585e-06 -1.8193749350519000e-05 0.16464343749462432 1.1519336992039151e-07 0.0000000000000000 0.60937500000000000 0.0000000000000000 0.60936830012446086 -1.8193749350519000e-05 
0.60937500000000000 0.015625000000000000 0.0000000000000000 -6.3140797294664592e-06 -1.8157734982098196e-05 0.17197785267206209 1.1225814323728352e-07 -4.9783713474101402e-08 0.60937500000000000 0.015625000000000000 0.60936868592027060 0.015606842265017901 
0.62500000000000000 0.0000000000000000 0.0000000000000000 -6.7324035361779144e-06 -1.8584739937457846e-05 0.14748595686890389 1.0991415983157838e-07 0.0000000000000000 0.62500000000000000 0.0000000000000000 0.62499326759646379 -1.8584739937457846e-05 
0.62500000000000000 0.015625000000000000 0.0000000000000000 -6.3487163135918034e-06 -1.8552577624060370e-05 0.15482498386121976 1.0710320740660011e-07 -5.1883964431341256e-08 0.62500000000000000 0.015625000000000000 0.62499365128368645 0.015606447422375937 
0.64062500000000000 0.0000000000000000 0.0000000000000000 -6.7610832551958631e-06 -1.8973278540081160e-05 0.13115730853914165 1.0450556002140254e-07 0.0000000000000000 0.64062500000000000 0.0000000000000000 0.64061823891674485 -1.8973278540081160e-05 
0.64062500000000000 0.015625000000000000 0.0000000000000000 -6.3796168948545880e-06 -1.8944785307256154e-05 0.13848356504753470 1.0183782878586342e-07 -5.3811899300570081e-08 0.64062500000000000 0.015625000000000000 0.64061862038310513 0.015606055214692743 
0.65625000000000000 0.0000000000000000 0.0000000000000000 -6.7861061695505172e-06 -1.9359248216176446e-05 0.11567651768304488 9.8964231442625394e-08 0.0000000000000000 0.65625000000000000 0.0000000000000000 0.65624321389383045 -1.9359248216176446e-05 
0.65625000000000000 0.015625000000000000 0.0000000000000000 -6.4069643391016754e-06 -1.9334236553560230e-05 0.12297085173359724 9.6459729092032235e-08 -5.5546198581560503e-08 0.65625000000000000 0.015625000000000000 0.65624359303566093 0.015605665763446437 
0.67187500000000000 0.0000000000000000 0.0000000000000000 -6.8076691429610259e-06 -1.9742540824284640e-05 0.10106294963631331 9.3287363974240739e-08 0.0000000000000000 0.67187500000000000 0.0000000000000000 0.67186819233085704 -1.9742540824284640e-05 
0.67187500000000000 0.015625000000000000 0.0000000000000000 -6.4309458241324242e-06 -1.9720818575665013e-05 0.10830435721733402 9.0967576374436706e-08 -5.7064258339007471e-08 0.67187500000000000 0.015625000000000000 0.67186856905417602 0.015605279181424335 
0.68750000000000000 0.0000000000000000 0.0000000000000000 -6.8259745952717178e-06 -2.0123058113735158e-05 0.087336163856538362 8.7472905852358341e-08 0.0000000000000000 0.68750000000000000 0.0000000000000000 0.68749317402540477 -2.0123058113735158e-05 
0.68750000000000000 0.015625000000000000 0.0000000000000000 -6.4517529299326405e-06 -2.0104428385627528e-05 0.094501684436981370 8.5361246050366682e-08 -5.8341811140167346e-08 0.68750000000000000 0.015625000000000000 0.68749354824706999 0.015604895571614373 
0.70312500000000000 0.0000000000000000 0.0000000000000000 -6.8412306624249466e-06 -2.0500712907296619e-05 0.074515716666815154 8.1519896191752322e-08 0.0000000000000000 0.70312500000000000 0.0000000000000000 0.70311815876933759 -2.0500712907296619e-05 
0.70312500000000000 0.015625000000000000 0.0000000000000000 -6.4695817032850157e-06 -2.0484974004903250e-05 0.081580309250422811 7.9642192615704545e-08 -5.9352538373863535e-08 0.70312500000000000 0.015625000000000000 0.70311853041829675 0.015604515025995096 
0.71875000000000000 0.0000000000000000 0.0000000000000000 -6.8536513412497033e-06 -2.0875430401213268e-05 0.062620892982699142 7.5428927387765853e-08 0.0000000000000000 0.71875000000000000 0.0000000000000000 0.71874314634865877 -2.0875430401213268e-05 
0.71875000000000000 0.015625000000000000 0.0000000000000000 -6.4846326866387720e-06 -2.0862375804245688e-05 0.069557296437228813 7.3813957738674184e-08 -6.0067676551595778e-08 0.71875000000000000 0.015625000000000000 0.71874351536731329 0.015604137624195755 
0.73437500000000000 0.0000000000000000 0.0000000000000000 -6.8634566056946886e-06 -2.1247149609735525e-05 0.051670342065781909 6.9202774308362518e-08 0.0000000000000000 0.73437500000000000 0.0000000000000000 0.73436813654339428 -2.1247149609735525e-05 
0.73437500000000000 0.015625000000000000 0.0000000000000000 -6.4971108973372547e-06 -2.1236568005100014e-05 0.058448925311331834 6.7882849152985183e-08 -6.0455625676329628e-08 0.73437500000000000 0.015625000000000000 0.73436850288910271 0.015603763431994900 
0.75000000000000000 0.0000000000000000 0.0000000000000000 -6.8708724758876498e-06 -2.1615824984086510e-05 0.041681585434113870 6.2847241010107771e-08 0.0000000000000000 0.75000000000000000 0.0000000000000000 0.74999312912752414 -2.1615824984086510e-05 
0.75000000000000000 0.015625000000000000 0.0000000000000000 -6.5072257386241889e-06 -2.1607500378170927e-05 0.048270196062654890 6.1858835499735829e-08 -6.0481576630150144e-08 0.75000000000000000 0.015625000000000000 0.74999349277426142 0.015603392499621829 
0.76562500000000000 0.0000000000000000 0.0000000000000000 -6.8761310143620119e-06 -2.1981428239118573e-05 0.032670355914652817 5.6372294208980562e-08 0.0000000000000000 0.76562500000000000 0.0000000000000000 0.76561812386898564 -2.1981428239118573e-05 
0.76562500000000000 0.015625000000000000 0.0000000000000000 -6.5151908180171357e-06 -2.1975140179768010e-05 0.039034180538430052 5.5756715176397410e-08 -6.0107189118085969e-08 0.76562500000000000 0.015625000000000000 0.76561848480918193 0.015603024859820234 
0.78125000000000000 0.0000000000000000 0.0000000000000000 -6.8794702141868729e-06 -2.2343950424616839e-05 0.024649714945621407 4.9793577850156841e-08 0.0000000000000000 0.78125000000000000 0.0000000000000000 0.78124312052978573 -2.2343950424616839e-05 
0.78125000000000000 0.015625000000000000 0.0000000000000000 -6.5212236413418769e-06 -2.2339474372345852e-05 0.030751171937740001 4.9597631714690716e-08 -5.9290375279757976e-08 0.78125000000000000 0.015625000000000000 0.78124347877635880 0.015602660525627655 
0.79687500000000000 0.0000000000000000 0.0000000000000000 -6.8811337304293858e-06 -2.2703404282057192e-05 0.017628880232950384 4.3134434347937418e-08 0.0000000000000000 0.79687500000000000 0.0000000000000000 0.79686811886626963 -2.2703404282057192e-05 
0.79687500000000000 0.015625000000000000 0.0000000000000000 -6.5255451416117109e-06 -2.2700512182241172e-05 0.023427576903982898 4.3411020629014697e-08 -5.7985282941146947e-08 0.79687500000000000 0.015625000000000000 0.79686847445485842 0.015602299487817758 
0.81250000000000000 0.0000000000000000 0.0000000000000000 -6.8813703876683549e-06 -2.3059826931069654e-05 0.011611677931345663 3.6428601233252575e-08 0.0000000000000000 0.81250000000000000 0.0000000000000000 0.81249311862961238 -2.3059826931069654e-05 
0.81250000000000000 0.015625000000000000 0.0000000000000000 -6.5283789906304418e-06 -2.3058288054539272e-05 0.017064481562021800 3.7237080856787852e-08 -5.6142632306392765e-08 0.81250000000000000 0.015625000000000000 0.81249347162100938 0.015601941711945460 
0.82812500000000000 0.0000000000000000 0.0000000000000000 -6.8804333695714631e-06 -2.3413282931670765e-05 0.0065945140712694132 2.9723780948700768e-08 0.0000000000000000 0.82812500000000000 0.0000000000000000 0.82811811956663040 -2.3413282931670765e-05 
0.82812500000000000 0.015625000000000000 0.0000000000000000 -6.5299506273180362e-06 -2.3412865071176611e-05 0.011655812582260337 3.1129835420042744e-08 -5.3710667505311071e-08 0.82812500000000000 0.015625000000000000 0.82811847004937267 0.015601587134928823 
0.84375000000000000 0.0000000000000000 0.0000000000000000 -6.8785789579016262e-06 -2.3763867765953535e-05 0.0025637441166622226 2.3086355074923260e-08 0.0000000000000000 0.84375000000000000 0.0000000000000000 0.84374312142104213 -2.3763867765953535e-05 
0.84375000000000000 0.015625000000000000 0.0000000000000000 -6.5304859199580381e-06 -2.3764338901334972e-05 0.0071860111219997037 2.5160815376922710e-08 -5.0637102070503904e-08 0.84375000000000000 0.015625000000000000 0.84374346951408008 0.015601235661098665 
0.85937500000000000 0.0000000000000000 0.0000000000000000 -6.8760646315047285e-06 -2.4111711770990010e-05 -0.00050768183707434621 1.6607379464684968e-08 0.0000000000000000 0.85937500000000000 0.0000000000000000 0.85936812393536854 -2.4111711770990010e-05 
0.85937500000000000 0.015625000000000000 0.0000000000000000 -6.5302093595028186e-06 -2.4112842347613847e-05 0.0036271548392730894 1.9423070410970546e-08 -4.6872841478925224e-08 0.85937500000000000 0.015625000000000000 0.85936846979064041 0.015600887157652387 
0.87500000000000000 0.0000000000000000 0.0000000000000000 -6.8731462513970573e-06 -2.4456984521773186e-05 -0.0026643841949536757 1.0410111374070326e-08 0.0000000000000000 0.87500000000000000 0.0000000000000000 0.87499312685374864 -2.4456984521773186e-05 
0.87500000000000000 0.015625000000000000 0.0000000000000000 -6.5293416570521850e-06 -2.4458550526360581e-05 0.00093552176136091477 1.4035280602498057e-08 -4.2377975619628721e-08 0.87500000000000000 0.015625000000000000 0.87499347065834299 0.015600541449473640 
0.89062500000000000 0.0000000000000000 0.0000000000000000 -6.8700739305848574e-06 -2.4799899586241979e-05 -0.0039734838237072845 4.6588447216699051e-09 0.0000000000000000 0.89062500000000000 0.0000000000000000 0.89061812992606937 -2.4799899586241979e-05 
0.89062500000000000 0.015625000000000000 0.0000000000000000 -6.5280965889906746e-06 -2.4801686653870311e-05 -0.00095224251473577512 9.1434277167910603e-09 -3.7133766966574679e-08 0.89062500000000000 0.015625000000000000 0.89061847190341104 0.015600198313346131 
0.90625000000000000 0.0000000000000000 0.0000000000000000 -6.8670859929194194e-06 -2.5140719396145769e-05 -0.0045300287673490256 -4.3529502834406974e-10 0.0000000000000000 0.90625000000000000 0.0000000000000000 0.90624313291400715 -2.5140719396145769e-05 