# For a description of the Tecplot format see the Tecplot User's guide.
#
Variables=x,y,z,s_u,s_v,s_p,x,y,ref_u,ref_v,u,v
Zone f=fepoint, n=289, e=512, et=quadrilateral, c=black
0.00000 0.00000 0.00000 0.0000000000000000 0.0000000000000000 1.9642997885243068 0.0000000000000000 0.0000000000000000 0.0000000000000000 0.0000000000000000 0.0000000000000000 0.0000000000000000 
0.062500000000000000 0.0000000000000000 0.0000000000000000 -1.5455939877060068e-06 -3.2438736279861633e-06 1.5610566494605866 1.4590989773221117e-06 0.0000000000000000 0.062500000000000000 0.0000000000000000 0.062498454406012295 -3.2438736279861633e-06 
0.062500000000000000 0.062500000000000000 0.0000000000000000 -3.5640883907800991e-07 -2.0477159651382355e-06 1.6058967218855713 8.5739378240655912e-07 4.0455339635298943e-07 0.062500000000000000 0.062500000000000000 0.062499643591160912 0.062497952284034868 
0.0000000000000000 0.062500000000000000 0.0000000000000000 0.0000000000000000 0.0000000000000000 1.6904888386661796 0.0000000000000000 1.1595392700996551e-06 0.0000000000000000 0.062500000000000000 0.0000000000000000 0.062500000000000000 
0.12500000000000000 0.0000000000000000 0.0000000000000000 -2.5973234587259846e-06 -5.1406912716739536e-06 1.1202432745510331 4.7129438618589626e-07 0.0000000000000000 0.12500000000000000 0.0000000000000000 0.12499740267654129 -5.1406912716739536e-06 
0.12500000000000000 0.062500000000000000 0.0000000000000000 -1.2929646457244782e-06 -4.2016361174979709e-06 1.2017197937870447 4.7928126558123636e-07 -1.6664277530164217e-07 0.12500000000000000 0.062500000000000000 0.12499870703535428 0.062495798363882506 
0.18750000000000000 0.0000000000000000 0.0000000000000000 -3.4399276547762973e-06 -6.7970189376098001e-06 0.86813563214596623 3.2403137051997226e-07 0.0000000000000000 0.18750000000000000 0.0000000000000000 0.18749656007234519 -6.7970189376098001e-06 
0.18750000000000000 0.062500000000000000 0.0000000000000000 -2.0925773261572798e-06 -6.0347397863774405e-06 0.91678079165289306 3.6120219029855220e-07 -2.5602305690144920e-08 0.18750000000000000 0.062500000000000000 0.18749790742267383 0.062493965260213620 
0.25000000000000000 0.0000000000000000 0.0000000000000000 -4.1374681814567035e-06 -8.3897788075550374e-06 0.69954017988320449 2.3867063937807823e-07 0.0000000000000000 0.25000000000000000 0.0000000000000000 0.24999586253181852 -8.3897788075550374e-06 
0.25000000000000000 0.062500000000000000 0.0000000000000000 -2.7651947350724424e-06 -7.7610605545904802e-06 0.73084884952124940 2.4121059534243198e-07 -1.2803918970101023e-08 0.25000000000000000 0.062500000000000000 0.24999723480526495 0.062492238939445409 
0.31250000000000000 0.0000000000000000 0.0000000000000000 -4.7146576303363769e-06 -9.9641214647992780e-06 0.56923202322808597 1.9732273118129266e-07 0.0000000000000000 0.31250000000000000 0.0000000000000000 0.31249528534236964 -9.9641214647992780e-06 
0.31250000000000000 0.062500000000000000 0.0000000000000000 -3.3257923877715712e-06 -9.4467771015417891e-06 0.59413485229515750 1.9323679594912868e-07 -5.8815624900445741e-09 0.31250000000000000 0.062500000000000000 0.31249667420761224 0.062490553222898461 
0.37500000000000000 0.0000000000000000 0.0000000000000000 -5.1850958224124314e-06 -1.1530514693116023e-05 0.45986534835635323 1.7238401812309168e-07 0.0000000000000000 0.37500000000000000 0.0000000000000000 0.37499481490417758 -1.1530514693116023e-05 
0.37500000000000000 0.062500000000000000 0.0000000000000000 -3.7867007221091931e-06 -1.1110738206704785e-05 0.48338232100758211 1.6267464871660616e-07 -1.2000355122948471e-08 0.37500000000000000 0.062500000000000000 0.37499621329927790 0.062488889261793294 
0.43750000000000000 0.0000000000000000 0.0000000000000000 -5.5589625967320058e-06 -1.3087067364567834e-05 0.36476320951697705 1.5273188261255916e-07 0.0000000000000000 0.43750000000000000 0.0000000000000000 0.43749444103740326 -1.3087067364567834e-05 
0.43750000000000000 0.062500000000000000 0.0000000000000000 -4.1584453995442931e-06 -1.2754261268853036e-05 0.38887580470619421 1.4079288545073592e-07 -2.2179511666585403e-08 0.43750000000000000 0.062500000000000000 0.43749584155460047 0.062487245738731149 
0.50000000000000000 0.0000000000000000 0.0000000000000000 -5.8456337505670380e-06 -1.4627070131346123e-05 0.28148298616357764 1.3461957207682272e-07 0.0000000000000000 0.50000000000000000 0.0000000000000000 0.49999415436624944 -1.4627070131346123e-05 
0.50000000000000000 0.062500000000000000 0.0000000000000000 -4.4505802484500300e-06 -1.4371707825343148e-05 0.30670396356112462 1.2240100363135604e-07 -3.3379897684941985e-08 0.50000000000000000 0.062500000000000000 0.49999554941975161 0.062485628292174654 
0.56250000000000000 0.0000000000000000 0.0000000000000000 -6.0546940739007795e-06 -1.6142199355306659e-05 0.20928371697080250 1.1644231025331310e-07 0.0000000000000000 0.56250000000000000 0.0000000000000000 0.56249394530592611 -1.6142199355306659e-05 
0.56250000000000000 0.062500000000000000 0.0000000000000000 -4.6722594483827721e-06 -1.5954914133167999e-05 0.23535320422081921 1.0531616456522449e-07 -4.3656805295523012e-08 0.56250000000000000 0.062500000000000000 0.56249532774055166 0.062484045085866823 
0.62500000000000000 0.0000000000000000 0.0000000000000000 -6.1963743405594612e-06 -1.7624182916206141e-05 0.14809501545665851 9.7541385080194492e-08 0.0000000000000000 0.62500000000000000 0.0000000000000000 0.62499380362565948 -1.7624182916206141e-05 
0.62500000000000000 0.062500000000000000 0.0000000000000000 -4.8325876002659887e-06 -1.7495362556311658e-05 0.17428025865410821 8.8704277143980285e-08 -5.1696418542998620e-08 0.62500000000000000 0.062500000000000000 0.62499516741239969 0.062482504637443696 
0.68750000000000000 0.0000000000000000 0.0000000000000000 -6.2817793578944762e-06 -1.9065882132921381e-05 0.098048759631977025 7.7905837366299081e-08 0.0000000000000000 0.68750000000000000 0.0000000000000000 0.68749371822064209 -1.9065882132921381e-05 
0.68750000000000000 0.062500000000000000 0.0000000000000000 -4.9408375568159414e-06 -1.8985472581769838e-05 0.12327051823552737 7.2449157545967702e-08 -5.6388241015493459e-08 0.68750000000000000 0.062500000000000000 0.68749505916244313 0.062481014527418229 
0.75000000000000000 0.0000000000000000 0.0000000000000000 -6.3230361957595950e-06 -2.0462233725108811e-05 0.059201980407756587 5.7284288206341095e-08 0.0000000000000000 0.75000000000000000 0.0000000000000000 0.74999367696380437 -2.0462233725108811e-05 
0.75000000000000000 0.062500000000000000 0.0000000000000000 -5.0066048933094282e-06 -2.0419631767226328e-05 0.082099742164620973 5.6592931919787377e-08 -5.6699466104167788e-08 0.75000000000000000 0.062500000000000000 0.74999499339510667 0.062479580368232764 
0.81250000000000000 0.0000000000000000 0.0000000000000000 -6.3333643924081875e-06 -2.1811332781261411e-05 0.031328524875827234 3.7787950890581642e-08 0.0000000000000000 0.81250000000000000 0.0000000000000000 0.81249366663560763 -2.1811332781261411e-05 
0.81250000000000000 0.062500000000000000 0.0000000000000000 -5.0399467341019321e-06 -2.1795332276278934e-05 0.050336302309502950 4.2569706510849973e-08 -5.1545465770924260e-08 0.81250000000000000 0.062500000000000000 0.81249496005326594 0.062478204667723712 
0.87500000000000000 0.0000000000000000 0.0000000000000000 -6.3269099614073750e-06 -2.3115826829721262e-05 0.013682784605160321 1.6538044490435689e-08 0.0000000000000000 0.87500000000000000 0.0000000000000000 0.87499367309003862 -2.3115826829721262e-05 
0.87500000000000000 0.062500000000000000 0.0000000000000000 -5.0515161999787820e-06 -2.3114681085855255e-05 0.027245980952880028 2.8026184915337044e-08 -4.0322099203876930e-08 0.87500000000000000 0.062500000000000000 0.87499494848379999 0.062476885318914148 
0.93750000000000000 0.0000000000000000 0.0000000000000000 -6.3178319725888016e-06 -2.4384439693034754e-05 0.0047332479254908041 4.9102409891336183e-09 0.0000000000000000 0.93750000000000000 0.0000000000000000 0.93749368216802742 -2.4384439693034754e-05 
0.93750000000000000 0.062500000000000000 0.0000000000000000 -5.0526339507818117e-06 -2.4386477366367325e-05 0.011960629290151903 2.4020226773482809e-08 -2.3765289739355566e-08 0.93750000000000000 0.062500000000000000 0.93749494736604932 0.062475613522633637 
1.0000000000000000 0.0000000000000000 0.0000000000000000 -6.3160229040397473e-06 -2.5630309558047727e-05 0.0014177763281603721 0.0000000000000000 0.0000000000000000 1.0000000000000000 0.0000000000000000 0.99999368397709598 -2.5630309558047727e-05 
1.0000000000000000 0.062500000000000000 0.0000000000000000 -5.0547191277207409e-06 -2.5628535589438267e-05 0.0047591374663332325 0.0000000000000000 -5.1275945807929194e-09 1.0000000000000000 0.062500000000000000 0.99999494528087229 0.062474371464410559 
0.062500000000000000 0.12500000000000000 0.0000000000000000 -1.5817119152687487e-07 -1.6021811827664369e-06 1.3112563537127733 1.1230326775160555e-07 4.7295713157131170e-07 0.062500000000000000 0.12500000000000000 0.062499841828808474 0.12499839781881723 
0.0000000000000000 0.12500000000000000 0.0000000000000000 0.0000000000000000 0.0000000000000000 1.2797408002302948 0.0000000000000000 6.3809599271898914e-07 0.0000000000000000 0.12500000000000000 0.0000000000000000 0.12500000000000000 
0.12500000000000000 0.12500000000000000 0.0000000000000000 -5.9201336208357715e-07 -3.4405242621333781e-06 1.1317550766942532 4.0306807181642675e-07 2.7836610367381404e-07 0.12500000000000000 0.12500000000000000 0.12499940798663790 0.12499655947573786 
0.18750000000000000 0.12500000000000000 0.0000000000000000 -1.1991740415798634e-06 -5.3510133403375018e-06 0.89595019526614783 3.5239628934529652e-07 9.8701055613585273e-08 0.18750000000000000 0.12500000000000000 0.18749880082595841 0.12499464898665967 
0.25000000000000000 0.12500000000000000 0.0000000000000000 -1.7625127047651683e-06 -7.1793955847596220e-06 0.71511038360345269 2.3331737144489171e-07 5.7246458024416554e-08 0.25000000000000000 0.12500000000000000 0.24999823748729524 0.12499282060441526 
0.31250000000000000 0.12500000000000000 0.0000000000000000 -2.2510597851268839e-06 -8.9612513173157667e-06 0.58238887178190413 1.8354764264154701e-07 4.3177215899159933e-08 0.31250000000000000 0.12500000000000000 0.31249774894021481 0.12499103874868268 
0.37500000000000000 0.12500000000000000 0.0000000000000000 -2.6612284238407525e-06 -1.0712466846939785e-05 0.47815779181717399 1.4938815334160091e-07 2.5996219091636061e-08 0.37500000000000000 0.12500000000000000 0.37499733877157615 0.12498928753315307 
0.43750000000000000 0.12500000000000000 0.0000000000000000 -2.9967225106383585e-06 -1.2434587062232521e-05 0.39138542508817148 1.2767595357978346e-07 9.7922517358885379e-09 0.43750000000000000 0.12500000000000000 0.43749700327748936 0.12498756541293776 
0.50000000000000000 0.12500000000000000 0.0000000000000000 -3.2635389697688806e-06 -1.4122338466034540e-05 0.31694511845869749 1.1057259457754348e-07 -5.6352738807032686e-09 0.50000000000000000 0.12500000000000000 0.49999673646103021 0.12498587766153398 
0.56250000000000000 0.12500000000000000 0.0000000000000000 -3.4684600351055872e-06 -1.5767733232735243e-05 0.25251209456839935 9.5712770872699797e-08 -1.9205364845877011e-08 0.56250000000000000 0.12500000000000000 0.56249653153996493 0.12498423226676726 
0.62500000000000000 0.12500000000000000 0.0000000000000000 -3.6185681579568452e-06 -1.7362260165148083e-05 0.19696576394263757 8.2044142683587659e-08 -3.0241357265347878e-08 0.62500000000000000 0.12500000000000000 0.62499638143184200 0.12498263773983485 
0.68750000000000000 0.12500000000000000 0.0000000000000000 -3.7211353890375733e-06 -1.8898193879231501e-05 0.14960863273123448 6.9425164608121217e-08 -3.8100189994630425e-08 0.68750000000000000 0.12500000000000000 0.68749627886461095 0.12498110180612076 
0.75000000000000000 0.12500000000000000 0.0000000000000000 -3.7837097095497301e-06 -2.0369584545800040e-05 0.10976389651465762 5.7807105272929024e-08 -4.2216664753691788e-08 0.75000000000000000 0.12500000000000000 0.74999621629029045 0.12497963041545419 
0.81250000000000000 0.12500000000000000 0.0000000000000000 -3.8143900061523112e-06 -2.1773269823675779e-05 0.076592208910094939 4.8736375064358818e-08 -4.1873725614533107e-08 0.81250000000000000 0.12500000000000000 0.81249618560999382 0.12497822673017632 
0.87500000000000000 0.12500000000000000 0.0000000000000000 -3.8223421667918408e-06 -2.3110163335224039e-05 0.049140931139532100 3.8321163437785133e-08 -3.7145218398892203e-08 0.87500000000000000 0.12500000000000000 0.87499617765783311 0.12497688983666477 
0.93750000000000000 0.12500000000000000 0.0000000000000000 -3.8186429857352226e-06 -2.4387083418542743e-05 0.027092501451672971 3.9675228649697534e-08 -2.7072455754643456e-08 0.93750000000000000 0.12500000000000000 0.93749618135701429 0.12497561291658145 
1.0000000000000000 0.12500000000000000 0.0000000000000000 -3.8173928314391053e-06 -2.5619657892681620e-05 0.013719570208453396 0.0000000000000000 -1.7235034561258251e-08 1.0000000000000000 0.12500000000000000 0.99999618260716849 0.12497438034210732 
0.062500000000000000 0.18750000000000000 0.0000000000000000 -8.3608457574997788e-08 -1.3790666423335207e-06 1.0145278607671926 3.6070737224383499e-08 4.2308681754941702e-07 0.062500000000000000 0.18750000000000000 0.062499916391542419 0.18749862093335767 
0.0000000000000000 0.18750000000000000 0.0000000000000000 0.0000000000000000 0.0000000000000000 0.96281773636132295 0.0000000000000000 4.8564301964620413e-07 0.0000000000000000 0.18750000000000000 0.0000000000000000 0.18750000000000000 
0.12500000000000000 0.18750000000000000 0.0000000000000000 -3.0898784755710939e-07 -3.0306967372052805e-06 0.94354105414900158 1.9203466151655804e-07 3.3618492721246367e-07 0.12500000000000000 0.18750000000000000 0.12499969101215246 0.18749696930326279 
0.18750000000000000 0.18750000000000000 0.0000000000000000 -6.5620921194311541e-07 -4.8430855953913536e-06 0.81009853517036368 2.3633932263757235e-07 1.8178908393750252e-07 0.18750000000000000 0.18750000000000000 0.18749934379078806 0.18749515691440458 
0.25000000000000000 0.18750000000000000 0.0000000000000000 -1.0599631225470190e-06 -6.7061227384320556e-06 0.66774079038613932 2.0568357021153984e-07 9.8548734404713473e-08 0.25000000000000000 0.18750000000000000 0.24999894003687742 0.18749329387726157 
0.31250000000000000 0.18750000000000000 0.0000000000000000 -1.4385209827373542e-06 -8.5513405609353941e-06 0.55105230028862573 1.6291547251058547e-07 6.5148753708057327e-08 0.31250000000000000 0.18750000000000000 0.31249856147901728 0.18749144865943904 
0.37500000000000000 0.18750000000000000 0.0000000000000000 -1.7672084996275091e-06 -1.0370296228389182e-05 0.45847277673588094 1.3077765902754913e-07 4.1551995386128283e-08 0.37500000000000000 0.18750000000000000 0.37499823279150041 0.18748962970377162 
0.43750000000000000 0.18750000000000000 0.0000000000000000 -2.0397303622893752e-06 -1.2157584261695928e-05 0.38247097521475676 1.1017502213012336e-07 2.2250409984169860e-08 0.43750000000000000 0.18750000000000000 0.43749796026963766 0.18748784241573827 
0.50000000000000000 0.18750000000000000 0.0000000000000000 -2.2567494088699901e-06 -1.3905604723722125e-05 0.31806701708813717 9.4523145329852327e-08 4.5664930221113519e-09 0.50000000000000000 0.18750000000000000 0.49999774325059115 0.18748609439527628 
0.56250000000000000 0.18750000000000000 0.0000000000000000 -2.4217699832830377e-06 -1.5605500110982378e-05 0.26256193373742898 8.1864217991192030e-08 -1.1002815248707824e-08 0.56250000000000000 0.18750000000000000 0.56249757823001667 0.18748439449988899 
0.62500000000000000 0.18750000000000000 0.0000000000000000 -2.5395090830190883e-06 -1.7248378390503756e-05 0.21445835245372372 7.0962078406564488e-08 -2.4163558215381472e-08 0.62500000000000000 0.18750000000000000 0.62499746049091698 0.18748275162160952 
0.68750000000000000 0.18750000000000000 0.0000000000000000 -2.6152846806200909e-06 -1.8826221937800978e-05 0.17272583460922697 6.1623692563680234e-08 -3.4504225901209245e-08 0.68750000000000000 0.18750000000000000 0.68749738471531952 0.18748117377806220 
0.75000000000000000 0.18750000000000000 0.0000000000000000 -2.6549278368359546e-06 -2.0332599414293752e-05 0.13638087358863513 5.3796842261253500e-08 -4.1712415890376351e-08 0.75000000000000000 0.18750000000000000 0.74999734507216320 0.18747966740058572 
0.81250000000000000 0.18750000000000000 0.0000000000000000 -2.6650893444401149e-06 -2.1763355435742164e-05 0.10430356990845698 4.8913612193788386e-08 -4.5289812506877681e-08 0.81250000000000000 0.18750000000000000 0.81249733491065557 0.18747823664456423 
0.87500000000000000 0.18750000000000000 0.0000000000000000 -2.6539545390466752e-06 -2.3117430874722694e-05 0.075354276536875667 4.2728890672309356e-08 -4.5519722040790133e-08 0.87500000000000000 0.18750000000000000 0.87499734604546109 0.18747688256912529 
0.93750000000000000 0.18750000000000000 0.0000000000000000 -2.6324567716582435e-06 -2.4397980721536876e-05 0.049470033435093409 4.9059592721676107e-08 -4.0402707112186441e-08 0.93750000000000000 0.18750000000000000 0.93749736754322832 0.18747560201927846 
1.0000000000000000 0.18750000000000000 0.0000000000000000 -2.6159533769099492e-06 -2.5614193503842031e-05 0.031207219261983221 0.0000000000000000 -3.8277876758377391e-08 1.0000000000000000 0.18750000000000000 0.99999738404662308 0.18747438580649614 
0.062500000000000000 0.25000000000000000 0.0000000000000000 -4.5480339457621567e-08 -1.2654256542835291e-06 0.77127918580487176 -2.3380535562811962e-08 3.4072732794987789e-07 0.062500000000000000 0.25000000000000000 0.062499954519660540 0.24999873457434571 
0.0000000000000000 0.25000000000000000 0.0000000000000000 0.0000000000000000 0.0000000000000000 0.71599653350104575 0.0000000000000000 3.7950665329037345e-07 0.0000000000000000 0.25000000000000000 0.0000000000000000 0.25000000000000000 
0.12500000000000000 0.25000000000000000 0.0000000000000000 -1.5998702830297975e-07 -2.8068894392269867e-06 0.74591590925468265 9.3573053397566793e-08 2.9865699393993171e-07 0.12500000000000000 0.25000000000000000 0.12499984001297169 0.24999719311056076 
0.18750000000000000 0.25000000000000000 0.0000000000000000 -3.4698144709224094e-07 -4.5388200622019765e-06 0.67770819511264813 1.2951678297505749e-07 2.2470743314647459e-07 0.18750000000000000 0.25000000000000000 0.18749965301855290 0.24999546117993779 
0.25000000000000000 0.25000000000000000 0.0000000000000000 -5.8461625091916728e-07 -6.3746036840101442e-06 0.58912619278943912 1.4696608094126154e-07 1.4913800250876489e-07 0.25000000000000000 0.25000000000000000 0.24999941538374906 0.24999362539631598 
0.31250000000000000 0.25000000000000000 0.0000000000000000 -8.3475504062987773e-07 -8.2457205800330218e-06 0.50163406702141555 1.2905335448026307e-07 9.3135093182901875e-08 0.31250000000000000 0.25000000000000000 0.31249916524495935 0.24999175427941997 
0.37500000000000000 0.25000000000000000 0.0000000000000000 -1.0622572071045663e-06 -1.0109211259583543e-05 0.42672784342136000 1.0728282046556059e-07 6.0434562643825969e-08 0.37500000000000000 0.25000000000000000 0.37499893774279291 0.24998989078874043 
0.43750000000000000 0.25000000000000000 0.0000000000000000 -1.2526453567182866e-06 -1.1945830447400550e-05 0.36429166057433449 9.0212273211955978e-08 3.6288162512128348e-08 0.43750000000000000 0.25000000000000000 0.43749874735464328 0.24998805416955258 
0.50000000000000000 0.25000000000000000 0.0000000000000000 -1.4015127233081620e-06 -1.3742440447339372e-05 0.31153243606247844 7.7062578168463972e-08 1.6195227455008758e-08 0.50000000000000000 0.25000000000000000 0.49999859848727674 0.24998625755955264 
0.56250000000000000 0.25000000000000000 0.0000000000000000 -1.5091268944378769e-06 -1.5487849994684622e-05 0.26619767291955632 6.6790311319568426e-08 -1.0440116066706904e-09 0.56250000000000000 0.25000000000000000 0.56249849087310555 0.24998451215000531 
0.62500000000000000 0.25000000000000000 0.0000000000000000 -1.5779318348613245e-06 -1.7172109456597920e-05 0.22678092475293035 5.8396073359575898e-08 -1.5836327879255413e-08 0.62500000000000000 0.25000000000000000 0.62499842206816514 0.24998282789054341 
0.68750000000000000 0.25000000000000000 0.0000000000000000 -1.6114670756915711e-06 -1.8786570412900666e-05 0.19214679380855082 5.1727500858089087e-08 -2.8190035090598235e-08 0.68750000000000000 0.25000000000000000 0.68749838853292433 0.24998121342958710 
0.75000000000000000 0.25000000000000000 0.0000000000000000 -1.6140604115693698e-06 -2.0324083506086493e-05 0.16119632692748695 4.6756609025574113e-08 -3.8137032778092647e-08 0.75000000000000000 0.25000000000000000 0.74999838593958845 0.24997967591649392 
0.81250000000000000 0.25000000000000000 0.0000000000000000 -1.5910657154735365e-06 -2.1779215841488569e-05 0.13269605011141641 4.4768665928011247e-08 -4.5475536246950187e-08 0.81250000000000000 0.25000000000000000 0.81249840893428449 0.24997822078415852 
0.87500000000000000 0.25000000000000000 0.0000000000000000 -1.5496013330680305e-06 -2.3148479645875971e-05 0.10539756750986791 4.1794746178661182e-08 -5.0754424356115179e-08 0.87500000000000000 0.25000000000000000 0.87499845039866708 0.24997685152035412 
0.93750000000000000 0.25000000000000000 0.0000000000000000 -1.4998308207279827e-06 -2.4430579516096845e-05 0.079226221922264445 5.0978406450020967e-08 -5.1636552800916897e-08 0.93750000000000000 0.25000000000000000 0.93749850016917924 0.24997556942048391 
1.0000000000000000 0.25000000000000000 0.0000000000000000 -1.4566209422936423e-06 -2.5626743095743235e-05 0.058171509506475060 0.0000000000000000 -5.5946841247643764e-08 1.0000000000000000 0.25000000000000000 0.99999854337905758 0.24997437325690428 
0.062500000000000000 0.31250000000000000 0.0000000000000000 -2.2592646360123243e-08 -1.2136958884136225e-06 0.56901781467216273 -5.1255206252237787e-08 2.9454281135693536e-07 0.062500000000000000 0.31250000000000000 0.062499977407353642 0.31249878630411160 
0.0000000000000000 0.31250000000000000 0.0000000000000000 0.0000000000000000 0.0000000000000000 0.51206716402670116 0.0000000000000000 3.1816605301924652e-07 0.0000000000000000 0.31250000000000000 0.0000000000000000 0.31250000000000000 
0.12500000000000000 0.31250000000000000 0.0000000000000000 -6.9076852102518948e-08 -2.6963934273708676e-06 0.56831947972000008 4.4151587823750547e-08 2.6680415183909255e-07 0.12500000000000000 0.31250000000000000 0.12499993092314789 0.31249730360657263 
0.18750000000000000 0.31250000000000000 0.0000000000000000 -1.5010791432149749e-07 -4.3779108226986232e-06 0.53780957544450103 6.4842292195155868e-08 2.1795080304116158e-07 0.18750000000000000 0.31250000000000000 0.18749984989208568 0.31249562208917731 
0.25000000000000000 0.31250000000000000 0.0000000000000000 -2.6066805138159490e-07 -6.1858084325473021e-06 0.49044285163595241 8.3736676602183019e-08 1.6419451419050828e-07 0.25000000000000000 0.31250000000000000 0.24999973933194861 0.31249381419156746 
0.31250000000000000 0.31250000000000000 0.0000000000000000 -3.8482062336881478e-07 -8.0574810989956188e-06 0.43643661935517836 8.5822237887840677e-08 1.1378061938206055e-07 0.31250000000000000 0.31250000000000000 0.31249961517937663 0.31249194251890100 
0.37500000000000000 0.31250000000000000 0.0000000000000000 -5.0295822197935903e-07 -9.9447734367451474e-06 0.38428921125552162 7.7885081461997513e-08 7.5427106298876547e-08 0.37500000000000000 0.31250000000000000 0.37499949704177804 0.31249005522656326 
0.43750000000000000 0.31250000000000000 0.0000000000000000 -5.9962234179292521e-07 -1.1815124646518492e-05 0.33833611178955780 6.7096690448649565e-08 4.7101990297558589e-08 0.43750000000000000 0.31250000000000000 0.43749940037765817 0.31248818487535340 
0.50000000000000000 0.31250000000000000 0.0000000000000000 -6.6778504989606913e-07 -1.3648216853564653e-05 0.29883519912126727 5.7695661258615382e-08 2.4642534447187602e-08 0.50000000000000000 0.31250000000000000 0.49999933221495008 0.31248635178314643 
0.56250000000000000 0.31250000000000000 0.0000000000000000 -7.0548676549596036e-07 -1.5429414093617490e-05 0.26476848063619046 5.0088192917002031e-08 5.7530348021349695e-09 0.56250000000000000 0.31250000000000000 0.56249929451323455 0.31248457058590645 
0.62500000000000000 0.31250000000000000 0.0000000000000000 -7.1342010419854219e-07 -1.7147110631172806e-05 0.23506030313785611 4.4027069359802834e-08 -1.0525443455125153e-08 0.62500000000000000 0.31250000000000000 0.62499928657989579 0.31248285288936883 
0.68750000000000000 0.31250000000000000 0.0000000000000000 -6.9366735715003567e-07 -1.8791723455891101e-05 0.20873540955488568 3.9514212168109749e-08 -2.4620647276429049e-08 0.68750000000000000 0.31250000000000000 0.68749930633264278 0.31248120827654408 
0.75000000000000000 0.31250000000000000 0.0000000000000000 -6.4923460392047157e-07 -2.0355230551436141e-05 0.18477842650696386 3.6618513592766440e-08 -3.6866244958861862e-08 0.75000000000000000 0.31250000000000000 0.74999935076539603 0.31247964476944862 
0.81250000000000000 0.31250000000000000 0.0000000000000000 -5.8417460374457631e-07 -2.1830839091848615e-05 0.16200869204198826 3.6440753791247793e-08 -4.7336337730924218e-08 0.81250000000000000 0.31250000000000000 0.81249941582539631 0.31247816916090815 
0.87500000000000000 0.31250000000000000 0.0000000000000000 -5.0422734149117116e-07 -2.3212599359927450e-05 0.13916343567905526 3.5774558804494270e-08 -5.6773355316265545e-08 0.87500000000000000 0.31250000000000000 0.87499949577265845 0.31247678740064005 
0.93750000000000000 0.31250000000000000 0.0000000000000000 -4.1797438400089568e-07 -2.4494817842594499e-05 0.11594919203329446 4.6237061365636100e-08 -6.2653365412821226e-08 0.93750000000000000 0.31250000000000000 0.93749958202561601 0.31247550518215744 
1.0000000000000000 0.31250000000000000 0.0000000000000000 -3.3823753050595949e-07 -2.5671084904199647e-05 0.094289406047785129 0.0000000000000000 -7.2342737501270353e-08 1.0000000000000000 0.31250000000000000 0.99999966176246946 0.31247432891509580 
0.062500000000000000 0.37500000000000000 0.0000000000000000 -7.1620203103863839e-09 -1.2005879173715894e-06 0.39306158710603517 -7.3085994777893898e-08 2.6475091445561931e-07 0.062500000000000000 0.37500000000000000 0.062499992837979690 0.37499879941208264 
0.0000000000000000 0.37500000000000000 0.0000000000000000 0.0000000000000000 0.0000000000000000 0.33353979704093523 0.0000000000000000 2.8362547776501905e-07 0.0000000000000000 0.37500000000000000 0.0000000000000000 0.37500000000000000 
0.12500000000000000 0.37500000000000000 0.0000000000000000 -6.6812411995514054e-09 -2.6618557827434910e-06 0.40979119349563703 7.7588013585729501e-09 2.4067334064007833e-07 0.12500000000000000 0.37500000000000000 0.12499999331875879 0.37499733814421726 
0.18750000000000000 0.37500000000000000 0.0000000000000000 -1.0475315477610908e-08 -4.3215211121699364e-06 0.40475512321604196 1.9342039940327870e-08 2.0401710216979542e-07 0.18750000000000000 0.37500000000000000 0.18749998952468452 0.37499567847888787 
0.25000000000000000 0.37500000000000000 0.0000000000000000 -2.1480695476276734e-08 -6.1150765808802801e-06 0.38695282079400523 3.6377134056971858e-08 1.6386043450319151e-07 0.25000000000000000 0.37500000000000000 0.24999997851930453 0.37499388492341912 
0.31250000000000000 0.37500000000000000 0.0000000000000000 -3.5936874031457228e-08 -7.9849056829407924e-06 0.36171069475072976 4.3363933128472894e-08 1.2280797084648081e-07 0.31250000000000000 0.37500000000000000 0.31249996406312602 0.37499201509431707 
0.37500000000000000 0.37500000000000000 0.0000000000000000 -4.6284630843592917e-08 -9.8835982136256506e-06 0.33352029320772963 4.4738716714928891e-08 8.5880851572161017e-08 0.37500000000000000 0.37500000000000000 0.37499995371536915 0.37499011640178637 
0.43750000000000000 0.37500000000000000 0.0000000000000000 -4.4380435265825118e-08 -1.1774999283287017e-05 0.30607052812431518 4.1312435592049907e-08 5.5589868347926017e-08 0.43750000000000000 0.37500000000000000 0.43749995561956473 0.37498822500071677 
0.50000000000000000 0.37500000000000000 0.0000000000000000 -2.4421026284074240e-08 -1.3633309014371886e-05 0.28128528576026707 3.6545930879558688e-08 3.1238498310967439e-08 0.50000000000000000 0.37500000000000000 0.49999997557897374 0.37498636669098562 
0.56250000000000000 0.37500000000000000 0.0000000000000000 1.6005299251895667e-08 -1.5440475745762478e-05 0.25950409441388433 3.2014349005526228e-08 1.0903149138962728e-08 0.56250000000000000 0.37500000000000000 0.56250001600529920 0.37498455952425425 
0.62500000000000000 0.37500000000000000 0.0000000000000000 7.7071347189682166e-08 -1.7183076929236789e-05 0.24038344817637847 2.8273003301148825e-08 -6.6099837511495485e-09 0.62500000000000000 0.37500000000000000 0.62500007707134719 0.37498281692307073 
0.68750000000000000 0.37500000000000000 0.0000000000000000 1.5768612278611364e-07 -1.8850515586872798e-05 0.22334684685071127 2.5573964304665277e-08 -2.2058448347640756e-08 0.68750000000000000 0.37500000000000000 0.68750015768612283 0.37498114948441313 
0.75000000000000000 0.37500000000000000 0.0000000000000000 2.5595867567749891e-07 -2.0433935737328676e-05 0.20764815474212242 2.4154372578324644e-08 -3.6031406065096418e-08 0.75000000000000000 0.37500000000000000 0.75000025595867570 0.37497956606426269 
0.81250000000000000 0.37500000000000000 0.0000000000000000 3.6917359815463009e-07 -2.1925361230440160e-05 0.19231288282529002 2.4914042818610787e-08 -4.8866901376959958e-08 0.81250000000000000 0.37500000000000000 0.81250036917359825 0.37497807463876959 
0.87500000000000000 0.37500000000000000 0.0000000000000000 4.9331089840838840e-07 -2.3316753068232029e-05 0.17615869080895141 2.5783227313251779e-08 -6.1416454244453647e-08 0.87500000000000000 0.37500000000000000 0.87500049331089824 0.37497668324693173 