# For a description of the Tecplot format see the Tecplot User's guide.
#
Variables=x,y,z,s_u,s_v,s_p,x,y,ref_u,ref_v,u,v
Zone f=fepoint, n=1089, e=2048, et=quadrilateral, c=black
0.00000 0.00000 0.00000 0.0000000000000000 0.0000000000000000 2.7019189715609544 0.0000000000000000 0.0000000000000000 0.0000000000000000 0.0000000000000000 0.0000000000000000 0.0000000000000000 
0.031250000000000000 0.0000000000000000 0.0000000000000000 -1.0587487732106301e-06 -2.2757570336217359e-06 2.1985477164890614 3.5243612048683167e-06 0.0000000000000000 0.031250000000000000 0.0000000000000000 0.031248941251226788 -2.2757570336217359e-06 
0.031250000000000000 0.031250000000000000 0.0000000000000000 -2.6554944902386505e-07 -1.4433333011212180e-06 2.3004567711020862 2.1666659251087356e-06 6.5424651494462076e-07 0.031250000000000000 0.031250000000000000 0.031249734450550976 0.031248556666698877 
0.0000000000000000 0.031250000000000000 0.0000000000000000 0.0000000000000000 0.0000000000000000 2.4464417894668382 0.0000000000000000 2.3113690851504047e-06 0.0000000000000000 0.031250000000000000 0.0000000000000000 0.031250000000000000 
0.062500000000000000 0.0000000000000000 0.0000000000000000 -1.7696902756966659e-06 -3.5267038975663602e-06 1.6530551847843584 1.2285000419777960e-06 0.0000000000000000 0.062500000000000000 0.0000000000000000 0.062498230309724311 -3.5267038975663602e-06 
0.062500000000000000 0.031250000000000000 0.0000000000000000 -9.3988290138337612e-07 -2.8563437487849107e-06 1.7918422858482481 1.2100317592487007e-06 -6.3899887716961464e-07 0.062500000000000000 0.031250000000000000 0.062499060117098611 0.031247143656251215 
0.093750000000000000 0.0000000000000000 0.0000000000000000 -2.3547032476880899e-06 -4.5400472841864715e-06 1.3441718103096478 7.3888853817214130e-07 0.0000000000000000 0.093750000000000000 0.0000000000000000 0.093747645296752322 -4.5400472841864715e-06 
0.093750000000000000 0.031250000000000000 0.0000000000000000 -1.5351534472688869e-06 -3.9719827038871127e-06 1.4351159150047070 8.8394906095154019e-07 -2.9339106759917836e-07 0.093750000000000000 0.031250000000000000 0.093748464846552734 0.031246028017296115 
0.12500000000000000 0.0000000000000000 0.0000000000000000 -2.8682698439933872e-06 -5.4589984019741829e-06 1.1546292755121754 4.8475552565711474e-07 0.0000000000000000 0.12500000000000000 0.0000000000000000 0.12499713173015599 -5.4589984019741829e-06 
0.12500000000000000 0.031250000000000000 0.0000000000000000 -2.0637667664975649e-06 -4.9591610646077081e-06 1.2122735450081825 5.5431799960698095e-07 -1.9614837985516578e-07 0.12500000000000000 0.031250000000000000 0.12499793623323351 0.031245040838935392 
0.15625000000000000 0.0000000000000000 0.0000000000000000 -3.3314218180808439e-06 -6.3318066226704670e-06 1.0223143475362051 3.5789594182800794e-07 0.0000000000000000 0.15625000000000000 0.0000000000000000 0.15624666857818192 -6.3318066226704670e-06 
0.15625000000000000 0.031250000000000000 0.0000000000000000 -2.5385524786027384e-06 -5.8829408102920744e-06 1.0609547726724957 4.0698996948308392e-07 -1.1357219994912395e-07 0.15625000000000000 0.031250000000000000 0.15624746144752136 0.031244117059189707 
0.18750000000000000 0.0000000000000000 0.0000000000000000 -3.7539657441956771e-06 -7.1804655410779630e-06 0.91967605452043955 2.9245036912335200e-07 0.0000000000000000 0.18750000000000000 0.0000000000000000 0.18749624603425583 -7.1804655410779630e-06 
0.18750000000000000 0.031250000000000000 0.0000000000000000 -2.9683012190242966e-06 -6.7731741258524902e-06 0.94750766377521634 3.2295595600480741e-07 -6.8816089897710681e-08 0.18750000000000000 0.031250000000000000 0.18749703169878099 0.031243226825874149 
0.21875000000000000 0.0000000000000000 0.0000000000000000 -4.1411157823428788e-06 -8.0164354738344531e-06 0.83364906651939330 2.5460035547356901e-07 0.0000000000000000 0.21875000000000000 0.0000000000000000 0.21874585888421763 -8.0164354738344531e-06 
0.21875000000000000 0.031250000000000000 0.0000000000000000 -3.3590523139936055e-06 -7.6451850254188623e-06 0.85518634183186182 2.7292972670936803e-07 -4.2325810877410868e-08 0.21875000000000000 0.031250000000000000 0.21874664094768601 0.031242354814974584 
0.25000000000000000 0.0000000000000000 0.0000000000000000 -4.4959619627651949e-06 -8.8460510551389997e-06 0.75775747682521644 2.3073019657598447e-07 0.0000000000000000 0.25000000000000000 0.0000000000000000 0.24999550403803725 -8.8460510551389997e-06 
0.25000000000000000 0.031250000000000000 0.0000000000000000 -3.7150260906678304e-06 -8.5073126000416823e-06 0.77558895742536826 2.4098565866207665e-07 -2.7468027748128001e-08 0.25000000000000000 0.031250000000000000 0.24999628497390933 0.031241492687399956 
0.28125000000000000 0.0000000000000000 0.0000000000000000 -4.8205406623797496e-06 -9.6727923327039315e-06 0.68862225810342892 2.1418411451241703e-07 0.0000000000000000 0.28125000000000000 0.0000000000000000 0.28124517945933764 -9.6727923327039315e-06 
0.28125000000000000 0.031250000000000000 0.0000000000000000 -4.0392701608782391e-06 -9.3641239515633404e-06 0.70430107473826931 2.1891332061597257e-07 -1.9937628564309698e-08 0.28125000000000000 0.031250000000000000 0.28124596072983904 0.031240635876048441 
0.31250000000000000 0.0000000000000000 0.0000000000000000 -5.1163497009810089e-06 -1.0498414924235905e-05 0.62440008276000381 2.0159299976466507e-07 0.0000000000000000 0.31250000000000000 0.0000000000000000 0.31249488365029904 -1.0498414924235905e-05 
0.31250000000000000 0.031250000000000000 0.0000000000000000 -4.3340826644984352e-06 -1.0217982435641154e-05 0.63889572535197392 2.0251476745755723e-07 -1.7215673436584199e-08 0.31250000000000000 0.031250000000000000 0.31249566591733552 0.031239782017564360 
0.34375000000000000 0.0000000000000000 0.0000000000000000 -5.3846137643894001e-06 -1.1323578100028717e-05 0.56405645746878930 1.9116161177434166e-07 0.0000000000000000 0.34375000000000000 0.0000000000000000 0.34374461538623563 -1.1323578100028717e-05 
0.34375000000000000 0.031250000000000000 0.0000000000000000 -4.6012880335406963e-06 -1.1069890352738761e-05 0.57798874137707656 1.8945125930549541e-07 -1.7715637016741012e-08 0.34375000000000000 0.031250000000000000 0.34374539871196647 0.031238930109647262 
0.37500000000000000 0.0000000000000000 0.0000000000000000 -5.6264286324306025e-06 -1.2148223720332266e-05 0.50700729136185563 1.8187732344300140e-07 0.0000000000000000 0.37500000000000000 0.0000000000000000 0.37499437357136750 -1.2148223720332266e-05 
0.37500000000000000 0.031250000000000000 0.0000000000000000 -4.8424167811192430e-06 -1.1919979577392282e-05 0.52077408431763594 1.7836083616012126e-07 -2.0378888550138771e-08 0.37500000000000000 0.031250000000000000 0.37499515758321889 0.031238080020422609 
0.40625000000000000 0.0000000000000000 0.0000000000000000 -5.8428426677341600e-06 -1.2971818888379110e-05 0.45293187532420637 1.7314424337068019e-07 0.0000000000000000 0.40625000000000000 0.0000000000000000 0.40624415715733225 -1.2971818888379110e-05 
0.40625000000000000 0.031250000000000000 0.0000000000000000 -5.0588229905263246e-06 -1.2767815437809412e-05 0.46678304910116336 1.6841650263713682e-07 -2.4468091301903288e-08 0.40625000000000000 0.031250000000000000 0.40624494117700943 0.031237232184562192 
0.43750000000000000 0.0000000000000000 0.0000000000000000 -6.0349042405756382e-06 -1.3793518640948269e-05 0.40166981394810541 1.6459891709311364e-07 0.0000000000000000 0.43750000000000000 0.0000000000000000 0.43749396509575944 -1.3793518640948269e-05 
0.43750000000000000 0.031250000000000000 0.0000000000000000 -5.2517614614200971e-06 -1.3612594519309501e-05 0.41575231146387631 1.5909859320336112e-07 -2.9449691290339485e-08 0.43750000000000000 0.031250000000000000 0.43749474823853857 0.031236387405480692 
0.46875000000000000 0.0000000000000000 0.0000000000000000 -6.2036900109422136e-06 -1.4612279193507343e-05 0.35316147618661770 1.5601277724867725e-07 0.0000000000000000 0.46875000000000000 0.0000000000000000 0.46874379630998914 -1.4612279193507343e-05 
0.46875000000000000 0.031250000000000000 0.0000000000000000 -5.4224386615676776e-06 -1.4453278764290934e-05 0.36754786310303983 1.5007199450920553e-07 -3.4924247203717662e-08 0.46875000000000000 0.031250000000000000 0.46874457756133842 0.031235546721235709 
0.50000000000000000 0.0000000000000000 0.0000000000000000 -6.3503222554727146e-06 -1.5426939455749147e-05 0.30741227659818920 1.4723775445122138e-07 0.0000000000000000 0.50000000000000000 0.0000000000000000 0.49999364967774457 -1.5426939455749147e-05 
0.50000000000000000 0.031250000000000000 0.0000000000000000 -5.5720466293249208e-06 -1.5288689672132876e-05 0.32211923581823293 1.4111615889317734e-07 -4.0582044335007049e-08 0.50000000000000000 0.031250000000000000 0.49999442795337062 0.031234711310327869 
0.53125000000000000 0.0000000000000000 0.0000000000000000 -6.4759799571584963e-06 -1.6236281734245944e-05 0.26447062106145491 1.3817459745260144e-07 0.0000000000000000 0.53125000000000000 0.0000000000000000 0.53124352402004282 -1.6236281734245944e-05 
0.53125000000000000 0.031250000000000000 0.0000000000000000 -5.7017857692941268e-06 -1.6117576811828138e-05 0.27947095216777401 1.3208374706339133e-07 -4.6173002027044465e-08 0.53125000000000000 0.031250000000000000 0.53124429821423069 0.031233882423188173 
0.56250000000000000 0.0000000000000000 0.0000000000000000 -6.5819064911953499e-06 -1.7039078753789491e-05 0.22441391691943699 1.2875401505107782e-07 0.0000000000000000 0.56250000000000000 0.0000000000000000 0.56249341809350883 -1.7039078753789491e-05 
0.56250000000000000 0.031250000000000000 0.0000000000000000 -5.8128804189865102e-06 -1.6938669665872759e-05 0.23964411129318511 1.2287576012752912e-07 -5.1485004114269134e-08 0.56250000000000000 0.031250000000000000 0.56249418711958110 0.031233061330334128 
0.59375000000000000 0.0000000000000000 0.0000000000000000 -6.6694156518586138e-06 -1.7834131960170251e-05 0.18733931543695850 1.1892570684025821e-07 0.0000000000000000 0.59375000000000000 0.0000000000000000 0.59374333058434814 -1.7834131960170251e-05 
0.59375000000000000 0.031250000000000000 0.0000000000000000 -5.9065897086409293e-06 -1.7750718919224636e-05 0.20270397679175090 1.1342690372014342e-07 -5.6327344835552020e-08 0.59375000000000000 0.031250000000000000 0.59374409341029122 0.031232249281080777 
0.62500000000000000 0.0000000000000000 0.0000000000000000 -6.7398970809167336e-06 -1.8620304820266601e-05 0.15335699332184280 1.0865286472378592e-07 0.0000000000000000 0.62500000000000000 0.0000000000000000 0.62499326010291911 -1.8620304820266601e-05 
0.62500000000000000 0.031250000000000000 0.0000000000000000 -5.9842153166610892e-06 -1.8552531669937576e-05 0.16873093848474441 1.0369794217826120e-07 -6.0517382468046750e-08 0.62500000000000000 0.031250000000000000 0.62499401578468339 0.031231447468330061 
0.65625000000000000 0.0000000000000000 0.0000000000000000 -6.7948216689445400e-06 -1.9396554149983393e-05 0.12258431988292856 9.7911209577681856e-08 0.0000000000000000 0.65625000000000000 0.0000000000000000 0.65624320517833101 -1.9396554149983393e-05 
0.65625000000000000 0.031250000000000000 0.0000000000000000 -6.0471070666995943e-06 -1.9343004151568877e-05 0.13781297780504956 9.3673487389893369e-08 -6.3869345136036054e-08 0.65625000000000000 0.031250000000000000 0.65624395289293325 0.031230656995848430 
0.68750000000000000 0.0000000000000000 0.0000000000000000 -6.8357470788473738e-06 -2.0161962185794313e-05 0.095139439674020485 8.6692341879803182e-08 0.0000000000000000 0.68750000000000000 0.0000000000000000 0.68749316425292106 -2.0161962185794313e-05 
0.68750000000000000 0.031250000000000000 0.0000000000000000 -6.0966668085805990e-06 -2.0121155154583953e-05 0.11003810949506269 8.3364571809008207e-08 -6.6184883073597534e-08 0.68750000000000000 0.031250000000000000 0.68749390333319138 0.031229878844845415 
0.71875000000000000 0.0000000000000000 0.0000000000000000 -6.8643230865164349e-06 -2.0915772071747899e-05 0.071132768186117218 7.5012903697311354e-08 0.0000000000000000 0.71875000000000000 0.0000000000000000 0.71874313567691350 -2.0915772071747899e-05 
0.71875000000000000 0.031250000000000000 0.0000000000000000 -6.1343506026456740e-06 -2.0886163277223867e-05 0.085485382820827613 7.2816352823246080e-08 -6.7245644298112357e-08 0.71875000000000000 0.031250000000000000 0.71874386564939741 0.031229113836722777 
0.75000000000000000 0.0000000000000000 0.0000000000000000 -6.8822958318593352e-06 -2.1657429599686746e-05 0.050654692584632795 6.2927775351796894e-08 0.0000000000000000 0.75000000000000000 0.0000000000000000 0.74999311770416810 -2.1657429599686746e-05 
0.75000000000000000 0.031250000000000000 0.0000000000000000 -6.1616688362330338e-06 -2.1637411349392279e-05 0.064213011026964056 6.2119820821191559e-08 -6.6808921322292904e-08 0.75000000000000000 0.031250000000000000 0.74999383833116362 0.031228362588650607 
0.78125000000000000 0.0000000000000000 0.0000000000000000 -6.8915091784681077e-06 -2.2386634377754709e-05 0.033757741356215398 5.0561113286143491e-08 0.0000000000000000 0.78125000000000000 0.0000000000000000 0.78124310849082157 -2.2386634377754709e-05 
0.78125000000000000 0.031250000000000000 0.0000000000000000 -6.1801835139920657e-06 -2.2374541805186920e-05 0.046242340544874534 5.1432637399021983e-08 -6.4609528136952114e-08 0.78125000000000000 0.031250000000000000 0.78124381981648605 0.031227625458194814 
0.81250000000000000 0.0000000000000000 0.0000000000000000 -6.8938998688483960e-06 -2.3103403927058877e-05 0.020431265096030615 3.8111187665829015e-08 0.0000000000000000 0.81250000000000000 0.0000000000000000 0.81249310610013115 -2.3103403927058877e-05 
0.81250000000000000 0.031250000000000000 0.0000000000000000 -6.1915015153683539e-06 -2.3097527291223687e-05 0.031536687514620146 4.0985127814723594e-08 -6.0370030979334273e-08 0.81250000000000000 0.031250000000000000 0.81249380849848463 0.031226902472708772 
0.84375000000000000 0.0000000000000000 0.0000000000000000 -6.8914807072363141e-06 -2.3808154337885757e-05 0.010569193880334024 2.5992845591433552e-08 0.0000000000000000 0.84375000000000000 0.0000000000000000 0.84374310851929268 -2.3808154337885757e-05 
0.84375000000000000 0.031250000000000000 0.0000000000000000 -6.1972620968760926e-06 -2.3806761203929281e-05 0.019976582161354613 3.1147058013115696e-08 -5.3841498731143632e-08 0.84375000000000000 0.031250000000000000 0.84374380273790306 0.031226193238796069 
0.87500000000000000 0.0000000000000000 0.0000000000000000 -6.8863010922593274e-06 -2.4501799149141164e-05 0.0039296831320288104 1.4544134901701199e-08 0.0000000000000000 0.87500000000000000 0.0000000000000000 0.87499311369890764 -2.4501799149141164e-05 
0.87500000000000000 0.031250000000000000 0.0000000000000000 -6.1991157047889840e-06 -2.4503171933940069e-05 0.011334186291097578 2.2226390965585044e-08 -4.4837996311031398e-08 0.87500000000000000 0.031250000000000000 0.87499380088429535 0.031225496828066055 
0.90625000000000000 0.0000000000000000 0.0000000000000000 -6.8803664905519779e-06 -2.5185862809633120e-05 0.00010291709410739675 5.1646162683511387e-09 0.0000000000000000 0.90625000000000000 0.0000000000000000 0.90624311963350956 -2.5185862809633120e-05 
0.90625000000000000 0.031250000000000000 0.0000000000000000 -6.1986893696703473e-06 -2.5188361657081920e-05 0.0052666900639338756 1.5101963833745803e-08 -3.3528978611489716e-08 0.90625000000000000 0.031250000000000000 0.90624380131063031 0.031224811638342922 
0.93750000000000000 0.0000000000000000 0.0000000000000000 -6.8754780843914700e-06 -2.5862576414618524e-05 -0.0015377200822714271 -2.7949131578363691e-09 0.0000000000000000 0.93750000000000000 0.0000000000000000 0.93749312452191569 -2.5862576414618524e-05 
0.93750000000000000 0.031250000000000000 0.0000000000000000 -6.1975247403262863e-06 -2.5864754631965198e-05 0.0013208469799592581 8.7077658570254252e-09 -2.0160706154392070e-08 0.93750000000000000 0.031250000000000000 0.93749380247525960 0.031224135245368035 
0.96875000000000000 0.0000000000000000 0.0000000000000000 -6.8729113417391254e-06 -2.6534849465905874e-05 -0.0018660196932427716 -4.2918733262394278e-09 0.0000000000000000 0.96875000000000000 0.0000000000000000 0.96874312708865828 -2.6534849465905874e-05 
0.96875000000000000 0.031250000000000000 0.0000000000000000 -6.1969584242300576e-06 -2.6535711270205581e-05 -0.00098301532367064829 7.7979560372694255e-09 -7.8510164860735828e-09 0.96875000000000000 0.031250000000000000 0.96874380304157592 0.031223464288729793 
1.0000000000000000 0.0000000000000000 0.0000000000000000 -6.8726773378069544e-06 -2.7205613363232666e-05 -0.0021278119453942853 0.0000000000000000 0.0000000000000000 1.0000000000000000 0.0000000000000000 0.99999312732266221 -2.7205613363232666e-05 
1.0000000000000000 0.031250000000000000 0.0000000000000000 -6.1978058100858831e-06 -2.7205398197932735e-05 -0.0018575998453736746 0.0000000000000000 4.1877562478619442e-09 1.0000000000000000 0.031250000000000000 0.99999380219418976 0.031222794601802068 
0.031250000000000000 0.062500000000000000 0.0000000000000000 -1.3273620003299250e-07 -1.1071008669612999e-06 2.0330732588244316 5.1157563971211896e-07 8.7115908249997023e-07 0.031250000000000000 0.062500000000000000 0.031249867263799969 0.062498892899133039 
0.0000000000000000 0.062500000000000000 0.0000000000000000 0.0000000000000000 0.0000000000000000 2.0457840329518819 0.0000000000000000 1.3030490713019434e-06 0.0000000000000000 0.062500000000000000 0.0000000000000000 0.062500000000000000 
0.062500000000000000 0.062500000000000000 0.0000000000000000 -4.8446902196445505e-07 -2.2832800642261806e-06 1.7765987032442438 1.0629854105331330e-06 4.3588627543438598e-07 0.062500000000000000 0.062500000000000000 0.062499515530978038 0.062497716719935766 
0.093750000000000000 0.062500000000000000 0.0000000000000000 -9.7450157256384096e-07 -3.4320675423885039e-06 1.4676231265557329 9.0340076402247985e-07 4.3656754258945522e-08 0.093750000000000000 0.062500000000000000 0.093749025498427438 0.062496567932457614 
0.12500000000000000 0.062500000000000000 0.0000000000000000 -1.4533459791317195e-06 -4.4693004905040520e-06 1.2370577159847047 5.8651165935943797e-07 -8.6855016294450134e-09 0.12500000000000000 0.062500000000000000 0.12499854665402087 0.062495530699509493 
0.15625000000000000 0.062500000000000000 0.0000000000000000 -1.9000546581232057e-06 -5.4389454328946322e-06 1.0743789804477586 4.3460212521928923e-07 7.5930150711356438e-09 0.15625000000000000 0.062500000000000000 0.15624809994534192 0.062494561054567098 
0.18750000000000000 0.062500000000000000 0.0000000000000000 -2.3114984229806717e-06 -6.3695129483113038e-06 0.95325582649042973 3.3703571501540660e-07 1.7085415484112013e-08 0.18750000000000000 0.062500000000000000 0.18749768850157703 0.062493630487051692 
0.21875000000000000 0.062500000000000000 0.0000000000000000 -2.6888124289500171e-06 -7.2774094583042570e-06 0.85648965149099821 2.8009423987159160e-07 2.4111338415781748e-08 0.21875000000000000 0.062500000000000000 0.21874731118757104 0.062492722590541692 
0.25000000000000000 0.062500000000000000 0.0000000000000000 -3.0340655273416066e-06 -8.1720553868829012e-06 0.77466873506131739 2.4345974335384214e-07 2.6244699746200853e-08 0.25000000000000000 0.062500000000000000 0.24999696593447265 0.062491827944613117 
0.28125000000000000 0.062500000000000000 0.0000000000000000 -3.3493525125489931e-06 -9.0588093305850213e-06 0.70262927093519256 2.1829964598280404e-07 2.5172371869201945e-08 0.28125000000000000 0.062500000000000000 0.28124665064748738 0.062490941190669412 
0.31250000000000000 0.062500000000000000 0.0000000000000000 -3.6365618456504315e-06 -9.9405718689858728e-06 0.63746140835057896 1.9980513546138128e-07 2.1751809255424718e-08 0.31250000000000000 0.062500000000000000 0.31249636343815435 0.062490059428131017 
0.34375000000000000 0.062500000000000000 0.0000000000000000 -3.8973569686830744e-06 -1.0818698737837696e-05 0.57746406890973534 1.8530449606092864e-07 1.6680319377384075e-08 0.34375000000000000 0.062500000000000000 0.34374610264303129 0.062489181301262152 
0.37500000000000000 0.062500000000000000 0.0000000000000000 -4.1332171204058346e-06 -1.1693548672365684e-05 0.52161370596245726 1.7325170962143297e-07 1.0467469996535178e-08 0.37500000000000000 0.062500000000000000 0.37499586678287961 0.062488306451327635 
0.40625000000000000 0.062500000000000000 0.0000000000000000 -4.3454874190607030e-06 -1.2564827707553134e-05 0.46928499172190347 1.6270512048295416e-07 3.5042852980373798e-09 0.40625000000000000 0.062500000000000000 0.40624565451258093 0.062487435172292445 
0.43750000000000000 0.062500000000000000 0.0000000000000000 -4.5354228683292088e-06 -1.3431814606943348e-05 0.42009697017064540 1.5306967788452543e-07 -3.8979083157923247e-09 0.43750000000000000 0.062500000000000000 0.43749546457713168 0.062486568185393054 
0.46875000000000000 0.062500000000000000 0.0000000000000000 -4.7042229848554340e-06 -1.4293513671653734e-05 0.37382393417496562 1.4395868111389113e-07 -1.1483569151099357e-08 0.46875000000000000 0.062500000000000000 0.46874529577701513 0.062485706486328348 
0.50000000000000000 0.062500000000000000 0.0000000000000000 -4.8530577117179220e-06 -1.5148761594143192e-05 0.33034126359884070 1.3511626370500903e-07 -1.9036306043843071e-08 0.50000000000000000 0.062500000000000000 0.49999514694228830 0.062484851238405859 
0.53125000000000000 0.062500000000000000 0.0000000000000000 -4.9830863083652030e-06 -1.5996304532082674e-05 0.28959105070397423 1.2637214025241798e-07 -2.6366485529883035e-08 0.53125000000000000 0.062500000000000000 0.53124501691369164 0.062484003695467916 
0.56250000000000000 0.062500000000000000 0.0000000000000000 -5.0954709231290356e-06 -1.6834855755865270e-05 0.25155932959410665 1.1761453022826303e-07 -3.3301157914712132e-08 0.56250000000000000 0.062500000000000000 0.56249490452907691 0.062483165144244131 
0.59375000000000000 0.062500000000000000 0.0000000000000000 -5.1913862648246290e-06 -1.7663140901766153e-05 0.21626019530325527 1.0877413869793526e-07 -3.9675398507087131e-08 0.59375000000000000 0.062500000000000000 0.59374480861373513 0.062482336859098229 
0.62500000000000000 0.062500000000000000 0.0000000000000000 -5.2720264530829523e-06 -1.8479935951949865e-05 0.18372387459097195 9.9815468998205420e-08 -4.5324646880708387e-08 0.62500000000000000 0.062500000000000000 0.62499472797354694 0.062481520064048050 
0.65625000000000000 0.062500000000000000 0.0000000000000000 -5.3386098331979063e-06 -1.9284101993506174e-05 0.15398673723642037 9.0733550410765325e-08 -5.0077947633926982e-08 0.65625000000000000 0.062500000000000000 0.65624466139016679 0.062480715898006502 
0.68750000000000000 0.062500000000000000 0.0000000000000000 -5.3923823227530829e-06 -2.0074620276238170e-05 0.12708171639804022 8.1554992742124531e-08 -5.3752327154627068e-08 0.68750000000000000 0.062500000000000000 0.68749460761767722 0.062479925379723765 
0.71875000000000000 0.062500000000000000 0.0000000000000000 -5.4346197337844253e-06 -2.0850630924416178e-05 0.10302787016097260 7.2343261693428428e-08 -5.6148845022714170e-08 0.71875000000000000 0.062500000000000000 0.71874456538026621 0.062479149369075594 
0.75000000000000000 0.062500000000000000 0.0000000000000000 -5.4666295070426251e-06 -2.1611478758033540e-05 0.081818003579211096 6.3205639181313534e-08 -5.7051631145868806e-08 0.75000000000000000 0.062500000000000000 0.74999453337049282 0.062478388521241969 
0.78125000000000000 0.062500000000000000 0.0000000000000000 -5.4897524411462336e-06 -2.2356769963123449e-05 0.063403757833476362 5.4307884277652988e-08 -5.6231334515106076e-08 0.78125000000000000 0.062500000000000000 0.78124451024755881 0.062477643230036885 
0.81250000000000000 0.062500000000000000 0.0000000000000000 -5.5053652823566965e-06 -2.3086443687957440e-05 0.047678342151640914 4.5861076120942720e-08 -5.3457608390404515e-08 0.81250000000000000 0.062500000000000000 0.81249449463471779 0.062476913556312040 
0.84375000000000000 0.062500000000000000 0.0000000000000000 -5.5148854873173755e-06 -2.3800862861546027e-05 0.034460940468288598 3.8190296695852828e-08 -4.8523052190325154e-08 0.84375000000000000 0.062500000000000000 0.84374448511451272 0.062476199137138456 
0.87500000000000000 0.062500000000000000 0.0000000000000000 -5.5197792987118577e-06 -2.4500927980204963e-05 0.023489001004916590 3.1397102438043220e-08 -4.1293065004262371e-08 0.87500000000000000 0.062500000000000000 0.87499448022070136 0.062475499072019790 
0.90625000000000000 0.062500000000000000 0.0000000000000000 -5.5215736802386931e-06 -2.5188216312722962e-05 0.014451329187763580 2.6290205990468592e-08 -3.1818171395201134e-08 0.90625000000000000 0.062500000000000000 0.90624447842631983 0.062474811783687280 
0.93750000000000000 0.062500000000000000 0.0000000000000000 -5.5218636348776096e-06 -2.5865142791410990e-05 0.0070640865045128801 2.0316209783461935e-08 -2.0404193960661875e-08 0.93750000000000000 0.062500000000000000 0.93749447813636511 0.062474134857208589 
0.96875000000000000 0.062500000000000000 0.0000000000000000 -5.5222983506007825e-06 -2.6535141751344443e-05 0.0013563607861023150 2.0063384464823649e-08 -8.8067834212645532e-09 0.96875000000000000 0.062500000000000000 0.96874447770164951 0.062473464858248666 
1.0000000000000000 0.062500000000000000 0.0000000000000000 -5.5244564853140474e-06 -2.7202859134230434e-05 -0.0014942267208167658 0.0000000000000000 2.5557700511895686e-09 1.0000000000000000 0.062500000000000000 0.99999447554351473 0.062472797140865767 
0.031250000000000000 0.093750000000000000 0.0000000000000000 -8.1619081136187347e-08 -9.1416361094534848e-07 1.7496149437025332 2.8999864903562038e-07 8.1558555377749448e-07 0.031250000000000000 0.093750000000000000 0.031249918380918864 0.093749085836389065 
0.0000000000000000 0.093750000000000000 0.0000000000000000 0.0000000000000000 0.0000000000000000 1.7313657669153171 0.0000000000000000 9.8152506245836479e-07 0.0000000000000000 0.093750000000000000 0.0000000000000000 0.093750000000000000 
0.062500000000000000 0.093750000000000000 0.0000000000000000 -2.9808895271652926e-07 -1.9336182924512274e-06 1.6184023431626595 5.7707811265010378e-07 6.0460058746822680e-07 0.062500000000000000 0.093750000000000000 0.062499701911047277 0.093748066381707532 
0.093750000000000000 0.093750000000000000 0.0000000000000000 -6.2573841486833160e-07 -2.9928812180560867e-06 1.4216976814252058 6.7097725248661892e-07 2.6342677675518215e-07 0.093750000000000000 0.093750000000000000 0.093749374261585125 0.093747007118781936 
0.12500000000000000 0.093750000000000000 0.0000000000000000 -1.0138070172740470e-06 -4.0338316268447972e-06 1.2243970693572968 5.6300150752347146e-07 1.0198614576737125e-07 0.12500000000000000 0.093750000000000000 0.12499898619298273 0.093745966168373149 
0.15625000000000000 0.093750000000000000 0.0000000000000000 -1.4038147227466685e-06 -5.0286811773151348e-06 1.0664334516730714 4.3631277085042061e-07 6.3099290301132767e-08 0.15625000000000000 0.093750000000000000 0.15624859618527728 0.093744971318822687 
0.18750000000000000 0.093750000000000000 0.0000000000000000 -1.7767382175165314e-06 -5.9891512264893056e-06 0.94423933480327404 3.4148625989504130e-07 5.2926617090454749e-08 0.18750000000000000 0.093750000000000000 0.18749822326178248 0.093744010848773499 
0.21875000000000000 0.093750000000000000 0.0000000000000000 -2.1260113051827760e-06 -6.9270900813305758e-06 0.84635016402745578 2.8215069765625123e-07 5.0585230809936279e-08 0.21875000000000000 0.093750000000000000 0.21874787398869480 0.093743072909918665 
0.25000000000000000 0.093750000000000000 0.0000000000000000 -2.4496996184939292e-06 -7.8506399661029816e-06 0.76432733599071756 2.4226817222241243e-07 4.7311086881737648e-08 0.25000000000000000 0.093750000000000000 0.24999755030038151 0.093742149360033902 
0.28125000000000000 0.093750000000000000 0.0000000000000000 -2.7477125804154975e-06 -8.7648613326068276e-06 0.69295218890415045 2.1466233879143760e-07 4.2715747544516194e-08 0.28125000000000000 0.093750000000000000 0.28124725228741959 0.093741235138667389 
0.31250000000000000 0.093750000000000000 0.0000000000000000 -3.0207011272618091e-06 -9.6726542117268497e-06 0.62910891821306036 1.9436397542395383e-07 3.6666242278044114e-08 0.31250000000000000 0.093750000000000000 0.31249697929887271 0.093740327345788285 
0.34375000000000000 0.093750000000000000 0.0000000000000000 -3.2696063598594270e-06 -1.0575452488040748e-05 0.57090923552850859 1.7859308402325328e-07 2.9528153350397321e-08 0.34375000000000000 0.093750000000000000 0.34374673039364012 0.093739424547511954 
0.37500000000000000 0.093750000000000000 0.0000000000000000 -3.4954722673881517e-06 -1.1473699311828949e-05 0.51718209687347871 1.6568616312221746e-07 2.1618306613330016e-08 0.37500000000000000 0.093750000000000000 0.37499650452773259 0.093738526300688171 
0.40625000000000000 0.093750000000000000 0.0000000000000000 -3.6993705296558905e-06 -1.2367169369339368e-05 0.46718656414216203 1.5461640888388800e-07 1.3221488598369751e-08 0.40625000000000000 0.093750000000000000 0.40624630062947037 0.093737632830630649 
0.43750000000000000 0.093750000000000000 0.0000000000000000 -3.8823732103731132e-06 -1.3255190113752133e-05 0.42044896539795457 1.4472871531958407e-07 4.5808624733537181e-09 0.43750000000000000 0.093750000000000000 0.43749611762678958 0.093736744809886252 
0.46875000000000000 0.093750000000000000 0.0000000000000000 -4.0455455997038797e-06 -1.4136796409256299e-05 0.37666706689185231 1.3559368286469284e-07 -4.0933497499660993e-09 0.46875000000000000 0.093750000000000000 0.46874595445440032 0.093735863203590744 
0.50000000000000000 0.093750000000000000 0.0000000000000000 -4.1899470304020874e-06 -1.5010840837447306e-05 0.33565112545529746 1.2692559545482259e-07 -1.2615817008303638e-08 0.50000000000000000 0.093750000000000000 0.49999581005296961 0.093734989159162549 