# For a description of the Tecplot format see the Tecplot User's guide.
#
Variables=x,y,z,s_u,s_v,s_p,x,y,ref_u,ref_v,u,v
Zone f=fepoint, n=1089, e=2048, et=quadrilateral, c=black
0.00000 0.00000 0.00000 0.0000000000000000 0.0000000000000000 2.7721066105769578 0.0000000000000000 0.0000000000000000 0.0000000000000000 0.0000000000000000 0.0000000000000000 0.0000000000000000 
0.031250000000000000 0.0000000000000000 0.0000000000000000 -1.0522577396196660e-06 -2.2785465468801392e-06 2.2333622671636939 3.7347260973036818e-06 0.0000000000000000 0.031250000000000000 0.0000000000000000 0.031248947742260381 -2.2785465468801392e-06 
0.031250000000000000 0.031250000000000000 0.0000000000000000 -2.5880224111522665e-07 -1.4427594998449437e-06 2.3387129376992699 2.3244241483977019e-06 7.2665062086624851e-07 0.031250000000000000 0.031250000000000000 0.031249741197758887 0.031248557240500154 
0.0000000000000000 0.031250000000000000 0.0000000000000000 0.0000000000000000 0.0000000000000000 2.4957130852486125 0.0000000000000000 2.4772336555706431e-06 0.0000000000000000 0.031250000000000000 0.0000000000000000 0.031250000000000000 
0.062500000000000000 0.0000000000000000 0.0000000000000000 -1.7613729756851543e-06 -3.5274592829348792e-06 1.6641756746688119 1.2823106722285121e-06 0.0000000000000000 0.062500000000000000 0.0000000000000000 0.062498238627024312 -3.5274592829348792e-06 
0.062500000000000000 0.031250000000000000 0.0000000000000000 -9.3258124196609116e-07 -2.8556466943931173e-06 1.8038651166115125 1.2234091938005952e-06 -6.4331935116335745e-07 0.062500000000000000 0.031250000000000000 0.062499067418758041 0.031247144353305608 
0.093750000000000000 0.0000000000000000 0.0000000000000000 -2.3465961799756455e-06 -4.5388851419467915e-06 1.3484241529725030 7.4314354818079286e-07 0.0000000000000000 0.093750000000000000 0.0000000000000000 0.093747653403820019 -4.5388851419467915e-06 
0.093750000000000000 0.031250000000000000 0.0000000000000000 -1.5282016229971096e-06 -3.9699447599625989e-06 1.4382617394611839 8.9107882195582509e-07 -2.7893779388926534e-07 0.093750000000000000 0.031250000000000000 0.093748471798376989 0.031246030055240039 
0.12500000000000000 0.0000000000000000 0.0000000000000000 -2.8607829827488323e-06 -5.4567176176921026e-06 1.1581138024006379 4.8510751044324064e-07 0.0000000000000000 0.12500000000000000 0.0000000000000000 0.12499713921701723 -5.4567176176921026e-06 
0.12500000000000000 0.031250000000000000 0.0000000000000000 -2.0572762452046380e-06 -4.9560843375564330e-06 1.2140201625194258 5.5415771077212594e-07 -1.8435225787786443e-07 0.12500000000000000 0.031250000000000000 0.12499794272375479 0.031245043915662445 
0.15625000000000000 0.0000000000000000 0.0000000000000000 -3.3245164843236023e-06 -6.3288119984630297e-06 1.0260257264158581 3.5701740235941482e-07 0.0000000000000000 0.15625000000000000 0.0000000000000000 0.15624667548351567 -6.3288119984630297e-06 
0.15625000000000000 0.031250000000000000 0.0000000000000000 -2.5324664050039797e-06 -5.8791760076023610e-06 1.0629781741184052 4.0565681590585291e-07 -1.0226927382215741e-07 0.15625000000000000 0.031250000000000000 0.15624746753359500 0.031244120823992399 
0.18750000000000000 0.0000000000000000 0.0000000000000000 -3.7475082599111594e-06 -7.1769530849553106e-06 0.92358683815317499 2.9206076029968421e-07 0.0000000000000000 0.18750000000000000 0.0000000000000000 0.18749625249174010 -7.1769530849553106e-06 
0.18750000000000000 0.031250000000000000 0.0000000000000000 -2.9625244084229460e-06 -6.7689307471390637e-06 0.94989993478490542 3.2257914921034031e-07 -5.8927471082205795e-08 0.18750000000000000 0.031250000000000000 0.18749703747559157 0.031243231069252860 
0.21875000000000000 0.0000000000000000 0.0000000000000000 -4.1349819344205444e-06 -8.0124904358037022e-06 0.83758017679685748 2.5482539437849215e-07 0.0000000000000000 0.21875000000000000 0.0000000000000000 0.21874586501806559 -8.0124904358037022e-06 
0.21875000000000000 0.031250000000000000 0.0000000000000000 -3.3535053343354659e-06 -7.6405607088834032e-06 0.85773688999376552 2.7313247715671719e-07 -3.3328694361857500e-08 0.21875000000000000 0.031250000000000000 0.21874664649466566 0.031242359439291118 
0.25000000000000000 0.0000000000000000 0.0000000000000000 -4.4900593082444967e-06 -8.8417087255875882e-06 0.76156729487726371 2.3140042193268014e-07 0.0000000000000000 0.25000000000000000 0.0000000000000000 0.24999550994069175 -8.8417087255875882e-06 
0.25000000000000000 0.031250000000000000 0.0000000000000000 -3.7096511824632897e-06 -8.5023471605792425e-06 0.77812059219198815 2.4150520752481598e-07 -1.9121118074630638e-08 0.25000000000000000 0.031250000000000000 0.24999629034881754 0.031241497652839425 
0.28125000000000000 0.0000000000000000 0.0000000000000000 -4.8148057948794232e-06 -9.6680661640376763e-06 0.69222189276535717 2.1516368475135001e-07 0.0000000000000000 0.28125000000000000 0.0000000000000000 0.28124518519420511 -9.6680661640376763e-06 
0.28125000000000000 0.031250000000000000 0.0000000000000000 -4.0340272670400610e-06 -9.3588304537509857e-06 0.70670661955558389 2.1957373053512281e-07 -1.2114909757552564e-08 0.28125000000000000 0.031250000000000000 0.28124596597273294 0.031240641169546248 
0.31250000000000000 0.0000000000000000 0.0000000000000000 -5.1107409713398573e-06 -1.0493309295754570e-05 0.62773663832561832 2.0278590764784132e-07 0.0000000000000000 0.31250000000000000 0.0000000000000000 0.31249488925902869 -1.0493309295754570e-05 
0.31250000000000000 0.031250000000000000 0.0000000000000000 -4.3289447416210892e-06 -1.0212363047220972e-05 0.64111741362912023 2.0322021309079351e-07 -9.8785020994049052e-09 0.31250000000000000 0.031250000000000000 0.31249567105525838 0.031239787636952784 
0.34375000000000000 0.0000000000000000 0.0000000000000000 -5.3791047202539168e-06 -1.1318093958011338e-05 0.56709845813476234 1.9250326195321089e-07 0.0000000000000000 0.34375000000000000 0.0000000000000000 0.34374462089527974 -1.1318093958011338e-05 
0.34375000000000000 0.031250000000000000 0.0000000000000000 -4.5962372708736781e-06 -1.1063943536506857e-05 0.57999725119661460 1.9015882471687538e-07 -1.0870667476701431e-08 0.34375000000000000 0.031250000000000000 0.34374540376272916 0.031238936056463492 
0.37500000000000000 0.0000000000000000 0.0000000000000000 -5.6210031513348077e-06 -1.2142361074045197e-05 0.50973587864819236 1.8332288855439579e-07 0.0000000000000000 0.37500000000000000 0.0000000000000000 0.37499437899684868 -1.2142361074045197e-05 
0.37500000000000000 0.031250000000000000 0.0000000000000000 -4.8374418752640032e-06 -1.1913703152988876e-05 0.52255538260583378 1.7905247564792098e-07 -1.4050960326437192e-08 0.37500000000000000 0.031250000000000000 0.37499516255812476 0.031238086296847014 
0.40625000000000000 0.0000000000000000 0.0000000000000000 -5.8374915713998805e-06 -1.2965577910814225e-05 0.45533609242404505 1.7466049917394636e-07 0.0000000000000000 0.40625000000000000 0.0000000000000000 0.40624416250842860 -1.2965577910814225e-05 
0.40625000000000000 0.031250000000000000 0.0000000000000000 -5.0539172131883383e-06 -1.2761207776786895e-05 0.46833137144529241 1.6908501578328687e-07 -1.8686382533650909e-08 0.40625000000000000 0.031250000000000000 0.40624494608278683 0.031237238792223215 
0.43750000000000000 0.0000000000000000 0.0000000000000000 -6.0296229840024007e-06 -1.3786900145755502e-05 0.40374419221459074 1.6615962013924081e-07 0.0000000000000000 0.43750000000000000 0.0000000000000000 0.43749397037701598 -1.3786900145755502e-05 
0.43750000000000000 0.031250000000000000 0.0000000000000000 -5.2469212775527776e-06 -1.3605654939053563e-05 0.41706669388570439 1.5974079416336067e-07 -2.4241078574412508e-08 0.43750000000000000 0.031250000000000000 0.43749475307872249 0.031236394345060949 
0.46875000000000000 0.0000000000000000 0.0000000000000000 -6.1984771028404102e-06 -1.4605284829267588e-05 0.35490482513663418 1.5759594867366955e-07 0.0000000000000000 0.46875000000000000 0.0000000000000000 0.46874380152289713 -1.4605284829267588e-05 
0.46875000000000000 0.031250000000000000 0.0000000000000000 -5.4176627238057513e-06 -1.4446007594703461e-05 0.36863051932031526 1.5068562486560313e-07 -3.0310497011170281e-08 0.46875000000000000 0.031250000000000000 0.46874458233727617 0.031235553992405296 
0.50000000000000000 0.0000000000000000 0.0000000000000000 -6.3451781639833878e-06 -1.5419571772438175e-05 0.30882711061178941 1.4882393593303579e-07 0.0000000000000000 0.50000000000000000 0.0000000000000000 0.49999365482183600 -1.5419571772438175e-05 
0.50000000000000000 0.031250000000000000 0.0000000000000000 -5.5673350300505021e-06 -1.5281088198867821e-05 0.32297485900219364 1.4169857416955458e-07 -3.6578811554607735e-08 0.50000000000000000 0.031250000000000000 0.49999443266496996 0.031234718911801133 
0.53125000000000000 0.0000000000000000 0.0000000000000000 -6.4709063332877389e-06 -1.6228544194178670e-05 0.26556295954104264 1.3974554249795565e-07 0.0000000000000000 0.53125000000000000 0.0000000000000000 0.53124352909366668 -1.6228544194178670e-05 
0.53125000000000000 0.031250000000000000 0.0000000000000000 -5.6971394687195347e-06 -1.6109647179944104e-05 0.28010649092324053 1.3263133842463580e-07 -4.2789561552391548e-08 0.53125000000000000 0.031250000000000000 0.53124430286053126 0.031233890352820055 
0.56250000000000000 0.0000000000000000 0.0000000000000000 -6.5769055961449723e-06 -1.7030975721130897e-05 0.22519335025562651 1.3029152494421961e-07 0.0000000000000000 0.56250000000000000 0.0000000000000000 0.56249342309440387 -1.7030975721130897e-05 
0.56250000000000000 0.031250000000000000 0.0000000000000000 -5.8083007910138210e-06 -1.6930414775024703e-05 0.24006881610878861 1.2338364387589622e-07 -4.8724149792788002e-08 0.56250000000000000 0.031250000000000000 0.56249419169920900 0.031233069585224978 
0.59375000000000000 0.0000000000000000 0.0000000000000000 -6.6644899087876370e-06 -1.7825668683695247e-05 0.18781930481838441 1.2041045182082858e-07 0.0000000000000000 0.59375000000000000 0.0000000000000000 0.59374333551009117 -1.7825668683695247e-05 
0.59375000000000000 0.031250000000000000 0.0000000000000000 -5.9020781610547951e-06 -1.7742142317490970e-05 0.20292963326343993 1.1388867988449431e-07 -5.4185139681838282e-08 0.59375000000000000 0.031250000000000000 0.59374409792183880 0.031232257857682511 
0.62500000000000000 0.0000000000000000 0.0000000000000000 -6.7350486928120114e-06 -1.8611487412080584e-05 0.15355540644885987 1.1006311370308513e-07 0.0000000000000000 0.62500000000000000 0.0000000000000000 0.62499326495130714 -1.8611487412080584e-05 
0.62500000000000000 0.031250000000000000 0.0000000000000000 -5.9797729519132452e-06 -1.8543637440727161e-05 0.16877225781494642 1.0410546145715298e-07 -5.8982558554201955e-08 0.62500000000000000 0.031250000000000000 0.62499402022704809 0.031231456362559275 
0.65625000000000000 0.0000000000000000 0.0000000000000000 -6.7900522572093200e-06 -1.9387389552737076e-05 0.12252421283403926 9.9221423103688875e-08 0.0000000000000000 0.65625000000000000 0.0000000000000000 0.65624320994774277 -1.9387389552737076e-05 
0.65625000000000000 0.031250000000000000 0.0000000000000000 -6.0427343565841727e-06 -1.9333796778815028e-05 0.13768813290957904 9.4016634258555136e-08 -6.2922198027622912e-08 0.65625000000000000 0.031250000000000000 0.65624395726564344 0.031230666203221184 
0.68750000000000000 0.0000000000000000 0.0000000000000000 -6.8310573061054451e-06 -2.0152458109031517e-05 0.094850076599673441 8.7871777592004329e-08 0.0000000000000000 0.68750000000000000 0.0000000000000000 0.68749316894269386 -2.0152458109031517e-05 
0.68750000000000000 0.031250000000000000 0.0000000000000000 -6.0923632626421715e-06 -2.0111639341730966e-05 0.10976939487898309 8.3631200006791312e-08 -6.5795526707480342e-08 0.68750000000000000 0.031250000000000000 0.68749390763673734 0.031229888360658268 
0.71875000000000000 0.0000000000000000 0.0000000000000000 -6.8597122367362237e-06 -2.0905936861909916e-05 0.070650811808883440 7.6024221489632227e-08 0.0000000000000000 0.71875000000000000 0.0000000000000000 0.71874314028776320 -2.0905936861909916e-05 
0.71875000000000000 0.031250000000000000 0.0000000000000000 -6.1301144190563538e-06 -2.0876343683612377e-05 0.085099931803156517 7.2992478051121293e-08 -6.7371520445568204e-08 0.71875000000000000 0.031250000000000000 0.71874386988558092 0.031229123656316388 
0.75000000000000000 0.0000000000000000 0.0000000000000000 -6.8777613374247678e-06 -2.1647271985626324e-05 0.050025358527582407 6.3727017038350761e-08 0.0000000000000000 0.75000000000000000 0.0000000000000000 0.74999312223866255 -2.1647271985626324e-05 
0.75000000000000000 0.031250000000000000 0.0000000000000000 -6.1574965393804493e-06 -2.1627292193546551e-05 0.063743397739919452 6.2190927600324772e-08 -6.7391479149940755e-08 0.75000000000000000 0.031250000000000000 0.74999384250346057 0.031228372707806453 
0.78125000000000000 0.0000000000000000 0.0000000000000000 -6.8870461207163475e-06 -2.2376163008544123e-05 0.033035477679196595 5.1097832488720565e-08 0.0000000000000000 0.78125000000000000 0.0000000000000000 0.78124311295387938 -2.2376163008544123e-05 
0.78125000000000000 0.031250000000000000 0.0000000000000000 -6.1760696140944833e-06 -2.2364126273752022e-05 0.045726708070722766 5.1385583498040216e-08 -6.5570338490302844e-08 0.78125000000000000 0.031250000000000000 0.78124382393038594 0.031227635873726244 
0.81250000000000000 0.0000000000000000 0.0000000000000000 -6.8895005423437814e-06 -2.3092626588818454e-05 0.019679008149882857 3.8337141556679128e-08 0.0000000000000000 0.81250000000000000 0.0000000000000000 0.81249311049945760 -2.3092626588818454e-05 
0.81250000000000000 0.031250000000000000 0.0000000000000000 -6.1874382790107699e-06 -2.3086816691871491e-05 0.031017662671957616 4.0815905441567976e-08 -6.1605808579004519e-08 0.81250000000000000 0.031250000000000000 0.81249381256172104 0.031226913183308124 
0.84375000000000000 0.0000000000000000 0.0000000000000000 -6.8871344816264068e-06 -2.3797076774775125e-05 0.0098550633089675172 2.5866205996061129e-08 0.0000000000000000 0.84375000000000000 0.0000000000000000 0.84374311286551829 -2.3797076774775125e-05 
0.84375000000000000 0.031250000000000000 0.0000000000000000 -6.1932396277920666e-06 -2.3795753861768476e-05 0.019498013379981371 3.0864185455900013e-08 -5.5222543185633617e-08 0.84375000000000000 0.031250000000000000 0.84374380676037219 0.031226204246138232 
0.87500000000000000 0.0000000000000000 0.0000000000000000 -6.8819948916374979e-06 -2.4490423388135248e-05 0.0033184451561479936 1.4061833644127176e-08 0.0000000000000000 0.87500000000000000 0.0000000000000000 0.87499311800510837 -2.4490423388135248e-05 
0.87500000000000000 0.031250000000000000 0.0000000000000000 -6.1951226197479752e-06 -2.4491861905817161e-05 0.010933691827758732 2.1880985375438292e-08 -4.6196233443530463e-08 0.87500000000000000 0.031250000000000000 0.87499380487738032 0.031225508138094184 
0.90625000000000000 0.0000000000000000 0.0000000000000000 -6.8760865626949146e-06 -2.5174185525675744e-05 -0.00035581055033194389 4.3967302636052273e-09 0.0000000000000000 0.90625000000000000 0.0000000000000000 0.90624312391343731 -2.5174185525675744e-05 
0.90625000000000000 0.031250000000000000 0.0000000000000000 -6.1947146428624478e-06 -2.5176737862507413e-05 0.0049657025598436001 1.4769759054938296e-08 -3.4695687939547042e-08 0.90625000000000000 0.031250000000000000 0.90624380528535708 0.031224823262137491 
0.93750000000000000 0.0000000000000000 0.0000000000000000 -6.8712127720482255e-06 -2.5850586745785416e-05 -0.0018318830658632706 -3.8169197605258770e-09 0.0000000000000000 0.93750000000000000 0.0000000000000000 0.93749312878722790 -2.5850586745785416e-05 
0.93750000000000000 0.031250000000000000 0.0000000000000000 -6.1935604611436745e-06 -2.5852800543974453e-05 0.0011064362647134297 8.5196416570614840e-09 -2.0858872089430983e-08 0.93750000000000000 0.031250000000000000 0.93749380643953895 0.031224147199456025 
0.96875000000000000 0.0000000000000000 0.0000000000000000 -6.8686546946063978e-06 -2.6522530218242702e-05 -0.0020339513858829033 -4.9645588792061329e-09 0.0000000000000000 0.96875000000000000 0.0000000000000000 0.96874313134530554 -2.6522530218242702e-05 
0.96875000000000000 0.031250000000000000 0.0000000000000000 -6.1930043065719641e-06 -2.6523408992420599e-05 -0.0011508649999773311 8.0720008961159533e-09 -8.1257980306672030e-09 0.96875000000000000 0.031250000000000000 0.96874380699569340 0.031223476591007580 
1.0000000000000000 0.0000000000000000 0.0000000000000000 -6.8684314704895751e-06 -2.7192934160323142e-05 -0.0023095583273743921 0.0000000000000000 0.0000000000000000 1.0000000000000000 0.0000000000000000 0.99999313156852954 -2.7192934160323142e-05 
1.0000000000000000 0.031250000000000000 0.0000000000000000 -6.1938686222998708e-06 -2.7192729765477800e-05 -0.0020248026215030222 0.0000000000000000 4.8498803187874434e-09 1.0000000000000000 0.031250000000000000 0.99999380613137767 0.031222807270234521 
0.031250000000000000 0.062500000000000000 0.0000000000000000 -1.2839273762349201e-07 -1.1061123026427401e-06 2.0544375337749323 5.6679981207036713e-07 8.8358270454496262e-07 0.031250000000000000 0.062500000000000000 0.031249871607262381 0.062498893887697360 
0.0000000000000000 0.062500000000000000 0.0000000000000000 0.0000000000000000 0.0000000000000000 2.0732985518576563 0.0000000000000000 1.3824178618258641e-06 0.0000000000000000 0.062500000000000000 0.0000000000000000 0.062500000000000000 
0.062500000000000000 0.062500000000000000 0.0000000000000000 -4.7829969533862810e-07 -2.2810792409117155e-06 1.7862189925267502 1.0963710046824407e-06 4.5606833685962476e-07 0.062500000000000000 0.062500000000000000 0.062499521700304657 0.062497718920759081 
0.093750000000000000 0.062500000000000000 0.0000000000000000 -9.6874993296376024e-07 -3.4294356427750407e-06 1.4686506087837838 9.1339079503807093e-07 4.2566637422132316e-08 0.093750000000000000 0.062500000000000000 0.093749031250067047 0.062496570564357222 
0.12500000000000000 0.062500000000000000 0.0000000000000000 -1.4479951775238699e-06 -4.4658802893086587e-06 1.2364343748298467 5.8453065782131894e-07 -5.6351712080578795e-09 0.12500000000000000 0.062500000000000000 0.12499855200482247 0.062495534119710698 
0.15625000000000000 0.062500000000000000 0.0000000000000000 -1.8949868241625472e-06 -5.4348750523794538e-06 1.0741112201028171 4.3138230862708363e-07 1.1781161962769377e-08 0.15625000000000000 0.062500000000000000 0.15624810501317585 0.062494565124947617 
0.18750000000000000 0.062500000000000000 0.0000000000000000 -2.3066060590851596e-06 -6.3649572325894535e-06 0.95362554802954369 3.3507222848468652e-07 2.0818650681257373e-08 0.18750000000000000 0.062500000000000000 0.18749769339394093 0.062493635042767413 
0.21875000000000000 0.062500000000000000 0.0000000000000000 -2.6840349307458370e-06 -7.2724731904896610e-06 0.85726278948923484 2.7909365352923932e-07 2.7433221227530860e-08 0.21875000000000000 0.062500000000000000 0.21874731596506924 0.062492727526809511 
0.25000000000000000 0.062500000000000000 0.0000000000000000 -3.0293709241561248e-06 -8.1667909129699802e-06 0.77561399031222600 2.4315427444704117e-07 2.9099177386061572e-08 0.25000000000000000 0.062500000000000000 0.24999697062907586 0.062491833209087029 
0.28125000000000000 0.062500000000000000 0.0000000000000000 -3.3447244739223749e-06 -9.0532380422332582e-06 0.70359725200123713 2.1837033732520998e-07 2.7656760672808461e-08 0.28125000000000000 0.062500000000000000 0.28124665527552611 0.062490946761957766 
0.31250000000000000 0.062500000000000000 0.0000000000000000 -3.6319920052967438e-06 -9.9346999916543334e-06 0.63837055511140017 2.0006503866526099e-07 2.3925766140129475e-08 0.31250000000000000 0.062500000000000000 0.31249636800799468 0.062490065300008342 
0.34375000000000000 0.062500000000000000 0.0000000000000000 -3.8928410897709343e-06 -1.0812526076630788e-05 0.57827430884293018 1.8565128216430681e-07 1.8580207638847302e-08 0.34375000000000000 0.062500000000000000 0.34374610715891024 0.062489187473923367 
0.37500000000000000 0.062500000000000000 0.0000000000000000 -4.1287532910630559e-06 -1.1687072956388513e-05 0.52230762272091136 1.7363148905070157e-07 1.2111590237627112e-08 0.37500000000000000 0.062500000000000000 0.37499587124670891 0.062488312927043606 
0.40625000000000000 0.062500000000000000 0.0000000000000000 -4.3410751647789704e-06 -1.2558046548281010e-05 0.46985697802166088 1.6309025844461055e-07 4.9007359308460991e-09 0.40625000000000000 0.062500000000000000 0.40624565892483527 0.062487441953451718 
0.43750000000000000 0.062500000000000000 0.0000000000000000 -4.5310626578377961e-06 -1.3424726285854856e-05 0.42054752971573001 1.5344569507825014e-07 -2.7457264929166650e-09 0.43750000000000000 0.062500000000000000 0.43749546893734209 0.062486575273714144 
0.46875000000000000 0.062500000000000000 0.0000000000000000 -4.6999158978883386e-06 -1.4286117385072152e-05 0.37415685656257858 1.4431747295694055e-07 -1.0573682840487476e-08 0.46875000000000000 0.062500000000000000 0.46874530008410215 0.062485713882614931 
0.50000000000000000 0.062500000000000000 0.0000000000000000 -4.8488051743684945e-06 -1.5141057460781858e-05 0.33056230073048998 1.3545262022879192e-07 -1.8366285727781659e-08 0.50000000000000000 0.062500000000000000 0.49999515119482568 0.062484858942539211 
0.53125000000000000 0.062500000000000000 0.0000000000000000 -4.9788898583773305e-06 -1.5988293503800318e-05 0.28970736154999693 1.2668195422084588e-07 -2.5932356833359471e-08 0.53125000000000000 0.062500000000000000 0.53124502111014149 0.062484011706496201 
0.56250000000000000 0.062500000000000000 0.0000000000000000 -5.0913319886619523e-06 -1.6826539491547553e-05 0.25157932386808540 1.1789384886050599e-07 -3.3096705348201537e-08 0.56250000000000000 0.062500000000000000 0.56249490866801122 0.062483173460508461 
0.59375000000000000 0.062500000000000000 0.0000000000000000 -5.1873059472300211e-06 -1.7654521624909378e-05 0.21619359529633600 1.0901863260487211e-07 -3.9691614134770603e-08 0.59375000000000000 0.062500000000000000 0.59374481269405266 0.062482345478375091 
0.62500000000000000 0.062500000000000000 0.0000000000000000 -5.2680053063058964e-06 -1.8471016292122697e-05 0.18358190582799849 1.0002012695107120e-07 -4.5549171742283967e-08 0.62500000000000000 0.062500000000000000 0.62499473199469369 0.062481528983707880 
0.65625000000000000 0.062500000000000000 0.0000000000000000 -5.3346476335236485e-06 -1.9274884799304281e-05 0.15378239614341691 9.0892520445595047e-08 -5.0494408908308111e-08 0.65625000000000000 0.062500000000000000 0.65624466535236647 0.062480725115200697 
0.68750000000000000 0.062500000000000000 0.0000000000000000 -5.3884778248198620e-06 -2.0065108377300774e-05 0.12683006459135979 8.1661659121982327e-08 -5.4339514587377571e-08 0.68750000000000000 0.062500000000000000 0.68749461152217517 0.062479934891622700 
0.71875000000000000 0.062500000000000000 0.0000000000000000 -5.4307704142206506e-06 -2.0840826810523703e-05 0.10274627053289274 7.2390540270809048e-08 -5.6879686827238313e-08 0.71875000000000000 0.062500000000000000 0.71874456922958574 0.062479159173189476 
0.75000000000000000 0.062500000000000000 0.0000000000000000 -5.4628313093318747e-06 -2.1601384134985812e-05 0.081526120289576634 6.3187455751829149e-08 -5.7891991847015755e-08 0.75000000000000000 0.062500000000000000 0.74999453716869080 0.062478398615865016 
0.78125000000000000 0.062500000000000000 0.0000000000000000 -5.4859995632379594e-06 -2.2346385143417110e-05 0.063122979787475206 5.4220583978296554e-08 -5.7138601466127401e-08 0.78125000000000000 0.062500000000000000 0.78124451400043682 0.062477653614856583 
0.81250000000000000 0.062500000000000000 0.0000000000000000 -5.5016501008743168e-06 -2.3075766789222343e-05 0.047429922942063434 4.5711916894307992e-08 -5.4379154281277364e-08 0.81250000000000000 0.062500000000000000 0.81249449834989917 0.062476924233210780 
0.84375000000000000 0.062500000000000000 0.0000000000000000 -5.5111988317407663e-06 -2.3789888851177958e-05 0.034262013391407900 3.7996840856448408e-08 -4.9394748191689094e-08 0.84375000000000000 0.062500000000000000 0.84374448880116837 0.062476210111148824 
0.87500000000000000 0.062500000000000000 0.0000000000000000 -5.5161113975145227e-06 -2.4489647712732670e-05 0.023344358806742110 3.1225096739595944e-08 -4.2034802162417239e-08 0.87500000000000000 0.062500000000000000 0.87499448388860246 0.062475510352287267 
0.90625000000000000 0.062500000000000000 0.0000000000000000 -5.5179165062816025e-06 -2.5176616107380643e-05 0.014343923629816810 2.6215537963348586e-08 -3.2342285968855576e-08 0.90625000000000000 0.062500000000000000 0.90624448208349373 0.062474823383892618 
0.93750000000000000 0.062500000000000000 0.0000000000000000 -5.5182144461037167e-06 -2.5853204943113988e-05 0.0069369080576737975 2.0477284351469072e-08 -2.0560414130501635e-08 0.93750000000000000 0.062500000000000000 0.93749448178555383 0.062474146795056883 
0.96875000000000000 0.062500000000000000 0.0000000000000000 -5.5186660991929475e-06 -2.6522849297113402e-05 0.0011430667766137510 2.0751937575232554e-08 -8.6121888879656622e-09 0.96875000000000000 0.062500000000000000 0.96874448133390079 0.062473477150702887 
1.0000000000000000 0.062500000000000000 0.0000000000000000 -5.5208595637120344e-06 -2.7190199258873184e-05 -0.0017856737102073933 0.0000000000000000 3.5586477355782744e-09 1.0000000000000000 0.062500000000000000 0.99999447914043627 0.062472809800741123 
0.031250000000000000 0.093750000000000000 0.0000000000000000 -7.8830514107907653e-08 -9.1329498644568664e-07 1.7612073483216812 3.3212938753160211e-07 8.2754314824976497e-07 0.031250000000000000 0.093750000000000000 0.031249921169485887 0.093749086705013571 
0.0000000000000000 0.093750000000000000 0.0000000000000000 0.0000000000000000 0.0000000000000000 1.7474857531843206 0.0000000000000000 1.0143130679204839e-06 0.0000000000000000 0.093750000000000000 0.0000000000000000 0.093750000000000000 
0.062500000000000000 0.093750000000000000 0.0000000000000000 -2.9386846884346993e-07 -1.9314964506223550e-06 1.6227798717393658 5.8812860412121235e-07 6.1820689082158169e-07 0.062500000000000000 0.093750000000000000 0.062499706131531156 0.093748068503549373 
0.093750000000000000 0.093750000000000000 0.0000000000000000 -6.2109281606397000e-07 -2.9898730063330331e-06 1.4218941071832585 6.8042759686038931e-07 2.6839787458602526e-07 0.093750000000000000 0.093750000000000000 0.093749378907183933 0.093747010126993671 
0.12500000000000000 0.093750000000000000 0.0000000000000000 -1.0094377815343227e-06 -4.0303061770229047e-06 1.2227250652154134 5.6268993553490728e-07 1.0560960561820524e-07 0.12500000000000000 0.093750000000000000 0.12499899056221846 0.093745969693822984 
0.15625000000000000 0.093750000000000000 0.0000000000000000 -1.3996608557562155e-06 -5.0245932433338151e-06 1.0648677075155495 4.3389550301653570e-07 6.6566223162128132e-08 0.15625000000000000 0.093750000000000000 0.15624860033914426 0.093744975406756650 
0.18750000000000000 0.093750000000000000 0.0000000000000000 -1.7726896630443763e-06 -5.9845721048738609e-06 0.94331950733417536 3.3929404063131574e-07 5.6498594012438512e-08 0.18750000000000000 0.093750000000000000 0.18749822731033697 0.093744015427895122 
0.21875000000000000 0.093750000000000000 0.0000000000000000 -2.1220037214579945e-06 -6.9221047083549389e-06 0.84596458986413126 2.8075152573239910e-07 5.3804596785898365e-08 0.21875000000000000 0.093750000000000000 0.21874787799627857 0.093743077895291640 
0.25000000000000000 0.093750000000000000 0.0000000000000000 -2.4457064433768288e-06 -7.8453065805558220e-06 0.76425976533502871 2.4158377098754956e-07 5.0068474210448473e-08 0.25000000000000000 0.093750000000000000 0.24999755429355663 0.093742154693419441 
0.28125000000000000 0.093750000000000000 0.0000000000000000 -2.7437281613262475e-06 -8.7592116949722822e-06 0.69303363954487818 2.1439582754843577e-07 4.5088568328556261e-08 0.28125000000000000 0.093750000000000000 0.28124725627183866 0.093741240788305022 
0.31250000000000000 0.093750000000000000 0.0000000000000000 -3.0167286057862759e-06 -9.6667027537335477e-06 0.62923702045695074 1.9432701164146817e-07 3.8717596505674302e-08 0.31250000000000000 0.093750000000000000 0.31249698327139419 0.093740333297246278 
0.34375000000000000 0.093750000000000000 0.0000000000000000 -3.2656516776532465e-06 -1.0569204217545803e-05 0.57102924027179669 1.7866643285601758e-07 3.1315011574490362e-08 0.34375000000000000 0.093750000000000000 0.34374673434832242 0.093739430795782452 
0.37500000000000000 0.093750000000000000 0.0000000000000000 -3.4915416421827321e-06 -1.1467154828741799e-05 0.51726776035555033 1.6580467849363356e-07 2.3178061522855840e-08 0.37500000000000000 0.093750000000000000 0.37499650845835780 0.093738532845171252 
0.40625000000000000 0.093750000000000000 0.0000000000000000 -3.6954695881590862e-06 -1.2360327632935134e-05 0.46722734000475397 1.5474610140793861e-07 1.4578278185081067e-08 0.40625000000000000 0.093750000000000000 0.40624630453041183 0.093737639672367049 
0.43750000000000000 0.093750000000000000 0.0000000000000000 -3.8785067960428216e-06 -1.3248049837835633e-05 0.42044260212126722 1.4485229233994858e-07 5.7502027586858881e-09 0.43750000000000000 0.093750000000000000 0.43749612149320388 0.093736751950162164 
0.46875000000000000 0.093750000000000000 0.0000000000000000 -4.0417177994032610e-06 -1.4129356698505576e-05 0.37661563457553382 1.3570248674390864e-07 -3.1009460707053867e-09 0.46875000000000000 0.093750000000000000 0.46874595828220061 0.093735870643301480 
0.50000000000000000 0.093750000000000000 0.0000000000000000 -4.1861612359396229e-06 -1.5003101428287590e-05 0.33555898133071205 1.2701521173100023e-07 -1.1792443243462281e-08 0.50000000000000000 0.093750000000000000 0.49999581383876407 0.093734996898571718 