# For a description of the Tecplot format see the Tecplot User's guide.
#
Variables=x,y,z,s_u,s_v,s_p,x,y,ref_u,ref_v,u,v
Zone f=fepoint, n=1089, e=2048, et=quadrilateral, c=black
0.00000 0.00000 0.00000 0.0000000000000000 0.0000000000000000 2.7262018622191051 0.0000000000000000 0.0000000000000000 0.0000000000000000 0.0000000000000000 0.0000000000000000 0.0000000000000000 
0.031250000000000000 0.0000000000000000 0.0000000000000000 -1.0564987636741688e-06 -2.2767628814075151e-06 2.2107181705924073 3.5970775167766822e-06 0.0000000000000000 0.031250000000000000 0.0000000000000000 0.031248943501236321 -2.2767628814075151e-06 
0.031250000000000000 0.031250000000000000 0.0000000000000000 -2.6320550610081443e-07 -1.4431619503771449e-06 2.3138347398421506 2.2208531765916501e-06 6.7885239540264121e-07 0.031250000000000000 0.031250000000000000 0.031249736794493898 0.031248556838049623 
0.0000000000000000 0.031250000000000000 0.0000000000000000 0.0000000000000000 0.0000000000000000 2.4635921832220373 0.0000000000000000 2.3683039390483946e-06 0.0000000000000000 0.031250000000000000 0.0000000000000000 0.031250000000000000 
0.062500000000000000 0.0000000000000000 0.0000000000000000 -1.7667928582496580e-06 -3.5269975966885980e-06 1.6569765279411299 1.2469097208502997e-06 0.0000000000000000 0.062500000000000000 0.0000000000000000 0.062498233207141742 -3.5269975966885980e-06 
0.062500000000000000 0.031250000000000000 0.0000000000000000 -9.3733191690776855e-07 -2.8561290733113481e-06 1.7961398648319979 1.2151873573333691e-06 -6.4070357771193026e-07 0.062500000000000000 0.031250000000000000 0.062499062668083090 0.031247143870926693 
0.093750000000000000 0.0000000000000000 0.0000000000000000 -2.3518669097872566e-06 -4.5396676056666954e-06 1.3456798073364009 7.4045443975390702e-07 0.0000000000000000 0.093750000000000000 0.0000000000000000 0.093747648133090208 -4.5396676056666954e-06 
0.093750000000000000 0.031250000000000000 0.0000000000000000 -1.5327154316868333e-06 -3.9712968307752767e-06 1.4362752163529942 8.8668470210536836e-07 -2.8859171228354431e-07 0.093750000000000000 0.031250000000000000 0.093748467284568315 0.031246028703169226 
0.12500000000000000 0.0000000000000000 0.0000000000000000 -2.8656435053703189e-06 -5.4582211498852545e-06 1.1558491147276919 4.8490410705877062e-07 0.0000000000000000 0.12500000000000000 0.0000000000000000 0.12499713435649464 -5.4582211498852545e-06 
0.12500000000000000 0.031250000000000000 0.0000000000000000 -2.0614867215238311e-06 -4.9581061270417654e-06 1.2129068196647437 5.5432123813715210e-07 -1.9211347302048053e-07 0.12500000000000000 0.031250000000000000 0.12499793851327846 0.031245041893872959 
0.15625000000000000 0.0000000000000000 0.0000000000000000 -3.3289963084541011e-06 -6.3307745384887001e-06 1.0236067460167801 3.5758797901819145e-07 0.0000000000000000 0.15625000000000000 0.0000000000000000 0.15624667100369155 -6.3307745384887001e-06 
0.15625000000000000 0.031250000000000000 0.0000000000000000 -2.5364132043495049e-06 -5.8816397087827611e-06 1.0616695208124876 4.0653782394066141e-07 -1.0968029398697590e-07 0.15625000000000000 0.031250000000000000 0.15624746358679564 0.031244118360291218 
0.18750000000000000 0.0000000000000000 0.0000000000000000 -3.7516964937743743e-06 -7.1792488107123552e-06 0.92103810155532628 2.9230941023835452e-07 0.0000000000000000 0.18750000000000000 0.0000000000000000 0.18749624830350622 -7.1792488107123552e-06 
0.18750000000000000 0.031250000000000000 0.0000000000000000 -2.9662705232397563e-06 -6.7717014892266776e-06 0.94834805151746882 3.2281727790093987e-07 -6.5397027875580199e-08 0.18750000000000000 0.031250000000000000 0.18749703372947676 0.031243228298510773 
0.21875000000000000 0.0000000000000000 0.0000000000000000 -4.1389602993182605e-06 -8.0150651469747834e-06 0.83501985555076585 2.5467363210710095e-07 0.0000000000000000 0.21875000000000000 0.0000000000000000 0.21874586103970070 -8.0150651469747834e-06 
0.21875000000000000 0.031250000000000000 0.0000000000000000 -3.3571027897282297e-06 -7.6435763664005255e-06 0.85608294128567575 2.7298980131703541e-07 -3.9213058055365118e-08 0.21875000000000000 0.031250000000000000 0.21874664289721027 0.031242356423633599 
0.25000000000000000 0.0000000000000000 0.0000000000000000 -4.4938882570818085e-06 -8.8445402594835214e-06 0.75908733619836111 2.3095996542131774e-07 0.0000000000000000 0.25000000000000000 0.0000000000000000 0.24999550611174293 -8.8445402594835214e-06 
0.25000000000000000 0.031250000000000000 0.0000000000000000 -3.7131376071057023e-06 -8.5055828308825813e-06 0.77648047761128625 2.4115979892733610e-07 -2.4581654565663882e-08 0.25000000000000000 0.031250000000000000 0.24999628686239286 0.031241494417169117 
0.28125000000000000 0.0000000000000000 0.0000000000000000 -4.8185266435048256e-06 -9.6711462504421371e-06 0.68987952030107669 2.1452270884912916e-07 0.0000000000000000 0.28125000000000000 0.0000000000000000 0.28124518147335648 -9.6711462504421371e-06 
0.28125000000000000 0.031250000000000000 0.0000000000000000 -4.0374286896752766e-06 -9.3622782832281782e-06 0.70514952964290245 2.1914059768989093e-07 -1.7234621067702761e-08 0.28125000000000000 0.031250000000000000 0.28124596257131035 0.031240637721716768 
0.31250000000000000 0.0000000000000000 0.0000000000000000 -5.1143807941250179e-06 -1.0496635385251821e-05 0.62556574001927201 2.0200631487925825e-07 0.0000000000000000 0.31250000000000000 0.0000000000000000 0.31249488561920585 -1.0496635385251821e-05 
0.31250000000000000 0.031250000000000000 0.0000000000000000 -4.3322787120762853e-06 -1.0216022033071067e-05 0.63968025035899945 2.0276099901059669e-07 -1.4682323766143967e-08 0.31250000000000000 0.031250000000000000 0.31249566772128795 0.031239783977966926 
0.34375000000000000 0.0000000000000000 0.0000000000000000 -5.3826806819363931e-06 -1.1321665636899672e-05 0.56511916545604957 1.9162669753380216e-07 0.0000000000000000 0.34375000000000000 0.0000000000000000 0.34374461731931810 -1.1321665636899672e-05 
0.34375000000000000 0.031250000000000000 0.0000000000000000 -4.5995153394739704e-06 -1.1067814944382999e-05 0.57869855774557777 1.8970054419858777e-07 -1.5353779492955595e-08 0.34375000000000000 0.031250000000000000 0.34374540048466051 0.031238932185055617 
0.37500000000000000 0.0000000000000000 0.0000000000000000 -5.6245256954246877e-06 -1.2146178487172721e-05 0.50796026406152450 1.8237832242026953e-07 0.0000000000000000 0.37500000000000000 0.0000000000000000 0.37499437547430459 -1.2146178487172721e-05 
0.37500000000000000 0.031250000000000000 0.0000000000000000 -4.8406713677394124e-06 -1.1917788587238744e-05 0.52140393233786275 1.7860611966753085e-07 -1.8196731004349694e-08 0.37500000000000000 0.031250000000000000 0.37499515932863225 0.031238082211412766 
0.40625000000000000 0.0000000000000000 0.0000000000000000 -5.8409666284778250e-06 -1.2969641069715825e-05 0.45377118876647149 1.7366948124461482e-07 0.0000000000000000 0.40625000000000000 0.0000000000000000 0.40624415903337158 -1.2969641069715825e-05 
0.40625000000000000 0.031250000000000000 0.0000000000000000 -5.0571024850435085e-06 -1.2765508438706887e-05 0.46733069614037093 1.6865473250688660e-07 -2.2475447893786246e-08 0.40625000000000000 0.031250000000000000 0.40624494289751495 0.031237234491561294 
0.43750000000000000 0.0000000000000000 0.0000000000000000 -6.0330534750684951e-06 -1.3791208630532952e-05 0.40239352487541719 1.6513923013027422e-07 0.0000000000000000 0.43750000000000000 0.0000000000000000 0.43749396694652493 -1.3791208630532952e-05 
0.43750000000000000 0.031250000000000000 0.0000000000000000 -5.2500646101022920e-06 -1.3610171389901127e-05 0.41621729680850034 1.5932828392027020e-07 -2.7655658183573308e-08 0.43750000000000000 0.031250000000000000 0.43749474993538989 0.031236389828610100 
0.46875000000000000 0.0000000000000000 0.0000000000000000 -6.2018639652935684e-06 -1.4609837668179458e-05 0.35376917506955768 1.5656052348998290e-07 0.0000000000000000 0.46875000000000000 0.0000000000000000 0.46874379813603473 -1.4609837668179458e-05 
0.46875000000000000 0.031250000000000000 0.0000000000000000 -5.4207649761331636e-06 -1.4450739722329640e-05 0.36793089924576500 1.5029209595957735e-07 -3.3336201608869897e-08 0.46875000000000000 0.031250000000000000 0.46874457923502394 0.031235549260277665 
0.50000000000000000 0.0000000000000000 0.0000000000000000 -6.3485210617109439e-06 -1.5424367401550037e-05 0.30790487354047308 1.4778618223766055e-07 0.0000000000000000 0.50000000000000000 0.0000000000000000 0.49999365147893826 -1.5424367401550037e-05 
0.50000000000000000 0.031250000000000000 0.0000000000000000 -5.5703961240798913e-06 -1.5286035259685568e-05 0.32242194444755001 1.4132555700604645e-07 -3.9205276244139070e-08 0.50000000000000000 0.031250000000000000 0.49999442960387591 0.031234713964740313 
0.53125000000000000 0.0000000000000000 0.0000000000000000 -6.4742041602376576e-06 -1.6233580451577735e-05 0.26485026883429519 1.3871737761465933e-07 0.0000000000000000 0.53125000000000000 0.0000000000000000 0.53124352579583978 -1.6233580451577735e-05 
0.53125000000000000 0.031250000000000000 0.0000000000000000 -5.7001587602726654e-06 -1.6114807864022151e-05 0.27969577424363268 1.3228103408080473e-07 -4.5010606496259913e-08 0.53125000000000000 0.031250000000000000 0.53124429984123978 0.031233885192135980 
0.56250000000000000 0.0000000000000000 0.0000000000000000 -6.5801568474230811e-06 -1.7036249854246753e-05 0.22468403076370438 1.2928483082192806e-07 0.0000000000000000 0.56250000000000000 0.0000000000000000 0.56249341984315260 -1.7036249854246753e-05 
0.56250000000000000 0.031250000000000000 0.0000000000000000 -5.8112773645323274e-06 -1.6935787275260116e-05 0.23979431701812215 1.2305910773425330e-07 -5.0537835975222241e-08 0.56250000000000000 0.031250000000000000 0.56249418872263546 0.031233064212724735 
0.59375000000000000 0.0000000000000000 0.0000000000000000 -6.6676929708817505e-06 -1.7831177360462233e-05 0.18750467664523637 1.1943784336711438e-07 0.0000000000000000 0.59375000000000000 0.0000000000000000 0.59374333230702914 -1.7831177360462233e-05 
0.59375000000000000 0.031250000000000000 0.0000000000000000 -5.9050110761041276e-06 -1.7747724398804266e-05 0.20278374413624214 1.1359396627136445e-07 -5.5593924466296333e-08 0.59375000000000000 0.031250000000000000 0.59374409498892389 0.031232252275601197 
0.62500000000000000 0.0000000000000000 0.0000000000000000 -6.7382020908052411e-06 -1.8617226734220752e-05 0.15342393597976853 1.0913877091819106e-07 0.0000000000000000 0.62500000000000000 0.0000000000000000 0.62499326179790915 -1.8617226734220752e-05 
0.62500000000000000 0.031250000000000000 0.0000000000000000 -5.9826614633383422e-06 -1.8549426513100938e-05 0.16874548851509774 1.0384576693940597e-07 -5.9993681691736731e-08 0.62500000000000000 0.031250000000000000 0.62499401733853677 0.031231450573486894 
0.65625000000000000 0.0000000000000000 0.0000000000000000 -6.7931548885102047e-06 -1.9393355075906813e-05 0.12256100303089836 9.8362017052762158e-08 0.0000000000000000 0.65625000000000000 0.0000000000000000 0.65624320684511150 -1.9393355075906813e-05 
0.65625000000000000 0.031250000000000000 0.0000000000000000 -6.0455781256729884e-06 -1.9339789983811964e-05 0.13776876152185577 9.3798433829706359e-08 -6.3548399299833503e-08 0.65625000000000000 0.031250000000000000 0.65624395442187433 0.031230660210016189 
0.68750000000000000 0.0000000000000000 0.0000000000000000 -6.8341086845804447e-06 -2.0158644882202833e-05 0.095036200202196178 8.7097396339142459e-08 0.0000000000000000 0.68750000000000000 0.0000000000000000 0.68749316589131537 -2.0158644882202833e-05 
0.68750000000000000 0.031250000000000000 0.0000000000000000 -6.0951625724790885e-06 -2.0117833668345038e-05 0.10994303711390428 8.3462288919922047e-08 -6.6056183128057572e-08 0.68750000000000000 0.031250000000000000 0.68749390483742756 0.031229882166331654 
0.71875000000000000 0.0000000000000000 0.0000000000000000 -6.8627127651216170e-06 -2.0912339508807687e-05 0.070962528532884886 7.5359305640485791e-08 0.0000000000000000 0.71875000000000000 0.0000000000000000 0.71874313728723482 -2.0912339508807687e-05 
0.71875000000000000 0.031250000000000000 0.0000000000000000 -6.1328704015872944e-06 -2.0882736137070000e-05 0.085349070270278618 7.2881852166588507e-08 -6.7294274476019554e-08 0.71875000000000000 0.031250000000000000 0.71874386712959837 0.031229117263862929 
0.75000000000000000 0.0000000000000000 0.0000000000000000 -6.8807126154760814e-06 -2.1653884865886463e-05 0.050433347342489367 6.3200416383983378e-08 0.0000000000000000 0.75000000000000000 0.0000000000000000 0.74999311928738466 -2.1653884865886463e-05 
0.75000000000000000 0.031250000000000000 0.0000000000000000 -6.1602114117986232e-06 -2.1633880050030989e-05 0.064046980452788213 6.2147949518149399e-08 -6.7014413336397861e-08 0.75000000000000000 0.031250000000000000 0.74999383978858825 0.031228366119949971 
0.78125000000000000 0.0000000000000000 0.0000000000000000 -6.8899512730199661e-06 -2.2382980513062714e-05 0.033504366604866387 5.0742775559821331e-08 0.0000000000000000 0.78125000000000000 0.0000000000000000 0.78124311004872693 -2.2382980513062714e-05 
0.78125000000000000 0.031250000000000000 0.0000000000000000 -6.1787469021899445e-06 -2.2370907461544914e-05 0.046060046572120726 5.1418768967906082e-08 -6.4944533648346616e-08 0.78125000000000000 0.031250000000000000 0.78124382125309777 0.031227629092538456 
0.81250000000000000 0.0000000000000000 0.0000000000000000 -6.8923645083552387e-06 -2.3099643644220191e-05 0.020167818133672206 3.8185612168336791e-08 0.0000000000000000 0.81250000000000000 0.0000000000000000 0.81249310763549165 -2.3099643644220191e-05 
0.81250000000000000 0.031250000000000000 0.0000000000000000 -6.1900829703572210e-06 -2.3093790340528111e-05 0.031353109514232362 4.0927890859147622e-08 -6.0798618787170937e-08 0.81250000000000000 0.031250000000000000 0.81249380991702969 0.031226906209659473 
0.84375000000000000 0.0000000000000000 0.0000000000000000 -6.8899641167559726e-06 -2.3804289608963385e-05 0.010319316947031951 2.5946247233522105e-08 0.0000000000000000 0.84375000000000000 0.0000000000000000 0.84374311003588309 -2.3804289608963385e-05 
0.84375000000000000 0.031250000000000000 0.0000000000000000 -6.1958581255633818e-06 -2.3802921022720096e-05 0.019807052719387000 3.1049565214252789e-08 -5.4318665593741370e-08 0.84375000000000000 0.031250000000000000 0.84374380414187444 0.031226197078977280 
0.87500000000000000 0.0000000000000000 0.0000000000000000 -6.8847986693587607e-06 -2.4497830627821142e-05 0.0037157111863595055 1.4376212195629216e-08 0.0000000000000000 0.87500000000000000 0.0000000000000000 0.87499311520133061 -2.4497830627821142e-05 
0.87500000000000000 0.031250000000000000 0.0000000000000000 -6.1977223105794601e-06 -2.4499226400144611e-05 0.011191779456498145 2.2106470700570906e-08 -4.5305630453895995e-08 0.87500000000000000 0.031250000000000000 0.87499380227768941 0.031225500773599858 
0.90625000000000000 0.0000000000000000 0.0000000000000000 -6.8788734315386742e-06 -2.5181789280800821e-05 -5.8201830418964984e-05 4.9001808735130636e-09 0.0000000000000000 0.90625000000000000 0.0000000000000000 0.90624312112656857 -2.5181789280800821e-05 
0.90625000000000000 0.031250000000000000 0.0000000000000000 -6.1973026994690509e-06 -2.5184306869941687e-05 0.0051587817132693371 1.4986166594247706e-08 -3.3928720557729859e-08 0.90625000000000000 0.031250000000000000 0.90624380269730054 0.031224815693130060 
0.93750000000000000 0.0000000000000000 0.0000000000000000 -6.8739903471776114e-06 -2.5858394083669108e-05 -0.0016419888830015977 -3.1435676507488977e-09 0.0000000000000000 0.93750000000000000 0.0000000000000000 0.93749312600965284 -2.5858394083669108e-05 
0.93750000000000000 0.031250000000000000 0.0000000000000000 -6.1961420399100348e-06 -2.5860584845326949e-05 0.0012430165431516510 8.6405300278461471e-09 -2.0398277559666271e-08 0.93750000000000000 0.031250000000000000 0.93749380385796000 0.031224139415154673 
0.96875000000000000 0.0000000000000000 0.0000000000000000 -6.8714268638495094e-06 -2.6530552402832924e-05 -0.0019267217472099488 -4.5226361712669575e-09 0.0000000000000000 0.96875000000000000 0.0000000000000000 0.96874312857313616 -2.6530552402832924e-05 
0.96875000000000000 0.031250000000000000 0.0000000000000000 -6.1955795579056238e-06 -2.6531420328807571e-05 -0.0010444785449584229 7.8873227098259462e-09 -7.9407007216969925e-09 0.96875000000000000 0.031250000000000000 0.96874380442044206 0.031223468579671194 
1.0000000000000000 0.0000000000000000 0.0000000000000000 -6.8711967908714266e-06 -2.7201191321829581e-05 -0.0021923645127355919 0.0000000000000000 0.0000000000000000 1.0000000000000000 0.0000000000000000 0.99999312880320912 -2.7201191321829581e-05 
1.0000000000000000 0.031250000000000000 0.0000000000000000 -6.1964330515821922e-06 -2.7200980084225051e-05 -0.0019180545945125117 0.0000000000000000 4.4149574128068518e-09 1.0000000000000000 0.031250000000000000 0.99999380356694845 0.031222799019915776 
0.031250000000000000 0.062500000000000000 0.0000000000000000 -1.3121967004443373e-07 -1.1067657543543956e-06 2.0406458589774581 5.3049015758583596e-07 8.7591309984057393e-07 0.031250000000000000 0.062500000000000000 0.031249868780329957 0.062498893234245644 
0.0000000000000000 0.062500000000000000 0.0000000000000000 0.0000000000000000 0.0000000000000000 2.0554201879432950 0.0000000000000000 1.3301398955202796e-06 0.0000000000000000 0.062500000000000000 0.0000000000000000 0.062500000000000000 
0.062500000000000000 0.062500000000000000 0.0000000000000000 -4.8231130214619412e-07 -2.2825338744823328e-06 1.7800647570516892 1.0746866426120591e-06 4.4280098727422305e-07 0.062500000000000000 0.062500000000000000 0.062499517688697860 0.062497717466125514 
0.093750000000000000 0.062500000000000000 0.0000000000000000 -9.7247845027155852e-07 -3.4311664540719024e-06 1.4680708191472487 9.0711814105996201e-07 4.3381390987512536e-08 0.093750000000000000 0.062500000000000000 0.093749027521549733 0.062496568833545929 
0.12500000000000000 0.062500000000000000 0.0000000000000000 -1.4514606648370246e-06 -4.4681207759931556e-06 1.2368814093313150 5.8592732104093210e-07 -7.6170028781549133e-09 0.12500000000000000 0.062500000000000000 0.12499854853933516 0.062495531879224013 
0.15625000000000000 0.062500000000000000 0.0000000000000000 -1.8982689844708928e-06 -5.4375344807244848e-06 1.0743031690264169 4.3353129341123007e-07 9.0598851009660968e-09 0.15625000000000000 0.062500000000000000 0.15624810173101553 0.062494562465519272 
0.18750000000000000 0.062500000000000000 0.0000000000000000 -2.3097756926216322e-06 -6.3679287812668829e-06 0.95339434012779611 3.3636070201639462e-07 1.8403343133011449e-08 0.18750000000000000 0.062500000000000000 0.18749769022430737 0.062493632071218726 
0.21875000000000000 0.062500000000000000 0.0000000000000000 -2.6871313957085868e-06 -7.2756895775781680e-06 0.85676784117917315 2.7974420782133222e-07 2.5287160015001226e-08 0.21875000000000000 0.062500000000000000 0.21874731286860430 0.062492724310422416 
0.25000000000000000 0.062500000000000000 0.0000000000000000 -3.0324147493609635e-06 -8.1702189308966758e-06 0.77500784179754101 2.4335081282652268e-07 2.7257696687243911e-08 0.25000000000000000 0.062500000000000000 0.24999696758525067 0.062491829781069104 
0.28125000000000000 0.062500000000000000 0.0000000000000000 -3.3477260475799472e-06 -9.0568644163950402e-06 0.70297711454197964 2.1832309772182575e-07 2.6055344694336251e-08 0.28125000000000000 0.062500000000000000 0.28124665227395246 0.062490943135583614 
0.31250000000000000 0.062500000000000000 0.0000000000000000 -3.6349566078120998e-06 -9.9385211192396373e-06 0.63778897991264205 1.9989624653803342e-07 2.2525335670024481e-08 0.31250000000000000 0.062500000000000000 0.31249636504339223 0.062490061478880761 
0.34375000000000000 0.062500000000000000 0.0000000000000000 -3.8957713762583090e-06 -1.0816542391823879e-05 0.57775685796998921 1.8542716978034259e-07 1.7357095102841925e-08 0.34375000000000000 0.062500000000000000 0.34374610422862378 0.062489183457608177 
0.37500000000000000 0.062500000000000000 0.0000000000000000 -4.1316504439052450e-06 -1.1691286154648309e-05 0.52186525485340618 1.7338671366168084e-07 1.1053933024049675e-08 0.37500000000000000 0.062500000000000000 0.37499586834955606 0.062488308713845357 
0.40625000000000000 0.062500000000000000 0.0000000000000000 -4.3439394544596799e-06 -1.2562458347253368e-05 0.46949310103795994 1.6284248438418352e-07 4.0032957422207075e-09 0.40625000000000000 0.062500000000000000 0.40624565606054558 0.062487437541652750 
0.43750000000000000 0.062500000000000000 0.0000000000000000 -4.5338937537387826e-06 -1.3429337934283206e-05 0.42026167323506808 1.5320412604701783e-07 -3.4851523784261706e-09 0.43750000000000000 0.062500000000000000 0.43749546610624623 0.062486570662065720 
0.46875000000000000 0.062500000000000000 0.0000000000000000 -4.7027130781335933e-06 -1.4290929515643682e-05 0.37394647879103471 1.4408723729026927e-07 -1.1156381530478070e-08 0.46875000000000000 0.062500000000000000 0.46874529728692188 0.062485709070484348 
0.50000000000000000 0.062500000000000000 0.0000000000000000 -4.8515674944212577e-06 -1.5146070091803352e-05 0.33042362826211696 1.3523700706866365e-07 -1.8793845223865163e-08 0.50000000000000000 0.062500000000000000 0.49999514843250559 0.062484853929908206 
0.53125000000000000 0.062500000000000000 0.0000000000000000 -4.9816163017197667e-06 -1.5993506100651670e-05 0.28963573768481460 1.2648355971628364e-07 -2.6207367778988834e-08 0.53125000000000000 0.062500000000000000 0.53124501838369831 0.062484006493899347 
0.56250000000000000 0.062500000000000000 0.0000000000000000 -5.0940216095490601e-06 -1.6831951050285900e-05 0.25156930314057790 1.1771518060961011e-07 -3.3223209851728001e-08 0.56250000000000000 0.062500000000000000 0.56249490597839047 0.062483168048949711 
0.59375000000000000 0.062500000000000000 0.0000000000000000 -5.1899580112498600e-06 -1.7660130765343737e-05 0.21623889965785406 1.0886244750200446e-07 -3.9675461716530860e-08 0.59375000000000000 0.062500000000000000 0.59374481004198876 0.062482339869234661 
0.62500000000000000 0.062500000000000000 0.0000000000000000 -5.2706194333058565e-06 -1.8476821360569769e-05 0.18367529907912603 9.9889625634990616e-08 -4.5398380554968658e-08 0.62500000000000000 0.062500000000000000 0.62499472938056666 0.062481523178639427 
0.65625000000000000 0.062500000000000000 0.0000000000000000 -5.3372239468487928e-06 -1.9280883989203237e-05 0.15391550910005478 9.0791449574423370e-08 -5.0219594799905780e-08 0.65625000000000000 0.062500000000000000 0.65624466277605320 0.062480719116010795 
0.68750000000000000 0.062500000000000000 0.0000000000000000 -5.3910171094675197e-06 -2.0071299882323253e-05 0.12699320241098946 8.1594265205288842e-08 -5.3954424286590730e-08 0.68750000000000000 0.062500000000000000 0.68749460898289050 0.062479928700117669 
0.71875000000000000 0.062500000000000000 0.0000000000000000 -5.4332742831000584e-06 -2.0847209031079798e-05 0.10292825557621632 7.2361386640267287e-08 -5.6401861435757241e-08 0.71875000000000000 0.062500000000000000 0.71874456672571696 0.062479152790968918 
0.75000000000000000 0.062500000000000000 0.0000000000000000 -5.4653023690395781e-06 -2.1607955964651865e-05 0.081714283576547073 6.3200482821941765e-08 -5.7343544585219557e-08 0.75000000000000000 0.062500000000000000 0.74999453469763100 0.062478392044035345 
0.78125000000000000 0.062500000000000000 0.0000000000000000 -5.4884415529435936e-06 -2.2353146363378310e-05 0.063303520132527769 5.4278218426662256e-08 -5.6547136185538260e-08 0.78125000000000000 0.062500000000000000 0.78124451155844710 0.062477646853636624 
0.81250000000000000 0.062500000000000000 0.0000000000000000 -5.5040679441109022e-06 -2.3082718589797031e-05 0.047589092363445856 4.5809573649739708e-08 -5.3778755169798851e-08 0.81250000000000000 0.062500000000000000 0.81249449593205580 0.062476917281410201 
0.84375000000000000 0.062500000000000000 0.0000000000000000 -5.5135984633297144e-06 -2.3797034458000119e-05 0.034388685521569588 3.8123346732817894e-08 -4.8826966827720841e-08 0.84375000000000000 0.062500000000000000 0.84374448640153676 0.062476202965542009 
0.87500000000000000 0.062500000000000000 0.0000000000000000 -5.5184991553541396e-06 -2.4496993025161849e-05 0.023435380750822712 3.1337752084177671e-08 -4.1551562340513551e-08 0.87500000000000000 0.062500000000000000 0.87499448150084469 0.062475503006974846 
0.90625000000000000 0.062500000000000000 0.0000000000000000 -5.5202976090629723e-06 -2.5184169995366679e-05 0.014410365364936444 2.6265048142917397e-08 -3.2000444794670785e-08 0.90625000000000000 0.062500000000000000 0.90624447970239086 0.062474815830004631 
0.93750000000000000 0.062500000000000000 0.0000000000000000 -5.5205906803440752e-06 -2.5860978946349087e-05 0.0070161875680526259 2.0372000001483991e-08 -2.0458431611634010e-08 0.93750000000000000 0.062500000000000000 0.93749447940931951 0.062474139021053650 
0.96875000000000000 0.062500000000000000 0.0000000000000000 -5.5210315748281371e-06 -2.6530854528992551e-05 0.0012789330937493606 2.0297682357533694e-08 -8.7375208959899290e-09 0.96875000000000000 0.062500000000000000 0.96874447896842508 0.062473469145471007 
1.0000000000000000 0.062500000000000000 0.0000000000000000 -5.5232021669286907e-06 -2.7198444242356378e-05 -0.0015975607710338980 0.0000000000000000 2.8979402345068741e-09 1.0000000000000000 0.062500000000000000 0.99999447679783293 0.062472801555757650 
0.031250000000000000 0.093750000000000000 0.0000000000000000 -8.0640556743763714e-08 -9.1385903363022480e-07 1.7537702998117242 3.0439834068331446e-07 8.2003373721672203e-07 0.031250000000000000 0.093750000000000000 0.031249919359443257 0.093749086140966373 
0.0000000000000000 0.093750000000000000 0.0000000000000000 0.0000000000000000 0.0000000000000000 1.7370418004273782 0.0000000000000000 9.9285581230591766e-07 0.0000000000000000 0.093750000000000000 0.0000000000000000 0.093750000000000000 
0.062500000000000000 0.093750000000000000 0.0000000000000000 -2.9660333952234567e-07 -1.9328845649985338e-06 1.6200427954532775 5.8114238895343930e-07 6.0940145139276771e-07 0.062500000000000000 0.093750000000000000 0.062499703396660479 0.093748067115434999 
0.093750000000000000 0.093750000000000000 0.0000000000000000 -6.2410103504821156e-07 -2.9918422018042014e-06 1.4218388595913292 6.7439755849391146e-07 2.6518766353015183e-07 0.093750000000000000 0.093750000000000000 0.093749375898964940 0.093747008157798198 
0.12500000000000000 0.093750000000000000 0.0000000000000000 -1.0122633690126833e-06 -4.0326093230476577e-06 1.2238526091031516 5.6299737082912565e-07 1.0325763825502810e-07 0.12500000000000000 0.093750000000000000 0.12499898773663098 0.093745967390676962 
0.15625000000000000 0.093750000000000000 0.0000000000000000 -1.4023472505206669e-06 -5.0272599074579675e-06 1.0659033686534831 4.3552163521686942e-07 6.4325530943996123e-08 0.15625000000000000 0.093750000000000000 0.15624859765274948 0.093744972740092539 
0.18750000000000000 0.093750000000000000 0.0000000000000000 -1.7753096496690048e-06 -5.9875558376235965e-06 0.94392484728441828 3.4073253193855653e-07 5.4190966436075816e-08 0.18750000000000000 0.093750000000000000 0.18749822469035030 0.093744012444162375 
0.21875000000000000 0.093750000000000000 0.0000000000000000 -2.1245990668811050e-06 -6.9253505982172889e-06 0.84621999207935605 2.8166221450736530e-07 5.1728262885827085e-08 0.21875000000000000 0.093750000000000000 0.21874787540093313 0.093743074649401778 
0.25000000000000000 0.093750000000000000 0.0000000000000000 -2.4482940204939238e-06 -7.8487772707911856e-06 0.76430874378304703 2.4202561725311895e-07 4.8293296980982608e-08 0.25000000000000000 0.093750000000000000 0.24999755170597951 0.093742151222729206 
0.28125000000000000 0.093750000000000000 0.0000000000000000 -2.7463112725082681e-06 -8.7628870335175679e-06 0.69298658879432795 2.1456661130778269e-07 4.3562540357088600e-08 0.28125000000000000 0.093750000000000000 0.28124725368872744 0.093741237112966488 
0.31250000000000000 0.093750000000000000 0.0000000000000000 -3.0193049450883685e-06 -9.6705737625485679e-06 0.62916018449699940 1.9435019530202684e-07 3.7399285947092153e-08 0.31250000000000000 0.093750000000000000 0.31249698069505488 0.093740329426237445 
0.34375000000000000 0.093750000000000000 0.0000000000000000 -3.2682172163751124e-06 -1.0573267947326294e-05 0.57095775734736209 1.7861931407779335e-07 3.0167274545344193e-08 0.34375000000000000 0.093750000000000000 0.34374673178278364 0.093739426732052669 
0.37500000000000000 0.093750000000000000 0.0000000000000000 -3.4940922380284660e-06 -1.1471411119154332e-05 0.51721832225355857 1.6572920807550709e-07 2.2176616215706562e-08 0.37500000000000000 0.093750000000000000 0.37499650590776196 0.093738528588880862 
0.40625000000000000 0.093750000000000000 0.0000000000000000 -3.6980015226598842e-06 -1.2364777336571082e-05 0.46720655411058210 1.5466400569711413e-07 1.3707473564328920e-08 0.40625000000000000 0.093750000000000000 0.40624630199847728 0.093737635222663429 
0.43750000000000000 0.093750000000000000 0.0000000000000000 -3.8810168821863835e-06 -1.3252693930663145e-05 0.42045178170651382 1.4477454895157555e-07 4.9999774471416108e-09 0.43750000000000000 0.093750000000000000 0.43749611898311785 0.093736747306069332 
0.46875000000000000 0.093750000000000000 0.0000000000000000 -4.0442033540544171e-06 -1.4134195877571513e-05 0.37665335214569712 1.3563454590754347e-07 -3.7374152906746311e-09 0.46875000000000000 0.093750000000000000 0.46874595579664596 0.093735865804122423 
0.50000000000000000 0.093750000000000000 0.0000000000000000 -4.1886200340927421e-06 -1.5008135961964822e-05 0.33562236842904242 1.2695982253176711e-07 -1.2320291030457150e-08 0.50000000000000000 0.093750000000000000 0.49999581137996590 0.093734991864038039 