# For a description of the Tecplot format see the Tecplot User's guide.
#
Variables=x,y,z,s_u,s_v,s_p,x,y,ref_u,ref_v,u,v
Zone f=fepoint, n=1089, e=2048, et=quadrilateral, c=black
0.00000 0.00000 0.00000 0.0000000000000000 0.0000000000000000 2.5948830597079415 0.0000000000000000 0.0000000000000000 0.0000000000000000 0.0000000000000000 0.0000000000000000 0.0000000000000000 
0.031250000000000000 0.0000000000000000 0.0000000000000000 -1.0687142468950511e-06 -2.2708630153634313e-06 2.1434727725292562 3.2051150351607855e-06 0.0000000000000000 0.031250000000000000 0.0000000000000000 0.031248931285753106 -2.2708630153634313e-06 
0.031250000000000000 0.031250000000000000 0.0000000000000000 -2.7598938020434670e-07 -1.4437759474900674e-06 2.2398621172420872 1.9325996283967141e-06 5.5093339588310777e-07 0.031250000000000000 0.031250000000000000 0.031249724010619793 0.031248556224052509 
0.0000000000000000 0.031250000000000000 0.0000000000000000 0.0000000000000000 0.0000000000000000 2.3696633879294793 0.0000000000000000 2.0658255657783746e-06 0.0000000000000000 0.031250000000000000 0.0000000000000000 0.031250000000000000 
0.062500000000000000 0.0000000000000000 0.0000000000000000 -1.7826960382412243e-06 -3.5250288531123929e-06 1.6348706159000896 1.1495257628921519e-06 0.0000000000000000 0.062500000000000000 0.0000000000000000 0.062498217303961760 -3.5250288531123929e-06 
0.062500000000000000 0.031250000000000000 0.0000000000000000 -9.5141683879641373e-07 -2.8569769388400198e-06 1.7712810255699669 1.1813745827942397e-06 -6.2894110172292128e-07 0.062500000000000000 0.031250000000000000 0.062499048583161194 0.031247143023061159 
0.093750000000000000 0.0000000000000000 0.0000000000000000 -2.3675827181288254e-06 -4.5414530230518732e-06 1.3370628913738978 7.3077720996086229e-07 0.0000000000000000 0.093750000000000000 0.0000000000000000 0.093747632417281859 -4.5414530230518732e-06 
0.093750000000000000 0.031250000000000000 0.0000000000000000 -1.5462896494072511e-06 -3.9747750624406630e-06 1.4291489286659387 8.6882932877313909e-07 -3.1221112516208623e-07 0.093750000000000000 0.031250000000000000 0.093748453710350579 0.031246025224937555 
0.12500000000000000 0.0000000000000000 0.0000000000000000 -2.8802825311619112e-06 -5.4622814444946624e-06 1.1490677267207516 4.8374383973340000e-07 0.0000000000000000 0.12500000000000000 0.0000000000000000 0.12499711971746884 -5.4622814444946624e-06 
0.12500000000000000 0.031250000000000000 0.0000000000000000 -2.0742315132730680e-06 -4.9636941499123200e-06 1.2091216362265496 5.5357673236861271e-07 -2.1332611152374850e-07 0.12500000000000000 0.031250000000000000 0.12499792576848674 0.031245036305850089 
0.15625000000000000 0.0000000000000000 0.0000000000000000 -3.3425571783684821e-06 -6.3363083908232177e-06 1.0165128795613296 3.5927219983245858e-07 0.0000000000000000 0.15625000000000000 0.0000000000000000 0.15624665744282162 -6.3363083908232177e-06 
0.15625000000000000 0.031250000000000000 0.0000000000000000 -2.5483908016262517e-06 -5.8886569472509715e-06 1.0576226195676117 4.0883309314534740e-07 -1.3046808178092190e-07 0.15625000000000000 0.031250000000000000 0.15624745160919837 0.031244111343052747 
0.18750000000000000 0.0000000000000000 0.0000000000000000 -3.7643989447187785e-06 -7.1858491834782984e-06 0.91356531531387664 2.9313412358239911e-07 0.0000000000000000 0.18750000000000000 0.0000000000000000 0.18749623560105530 -7.1858491834782984e-06 
0.18750000000000000 0.031250000000000000 0.0000000000000000 -2.9776445827184006e-06 -6.7797198772712730e-06 0.94365290727583362 3.2364665095342054e-07 -8.3833757811099970e-08 0.18750000000000000 0.031250000000000000 0.18749702235541729 0.031243220280122729 
0.21875000000000000 0.0000000000000000 0.0000000000000000 -4.1510274388957064e-06 -8.0225454884496683e-06 0.82748155990209948 2.5433013516814603e-07 0.0000000000000000 0.21875000000000000 0.0000000000000000 0.21874584897256111 -8.0225454884496683e-06 
0.21875000000000000 0.031250000000000000 0.0000000000000000 -3.3680196028804475e-06 -7.6523833322633390e-06 0.85107016590781515 2.7277537912217207e-07 -5.6026008717857495e-08 0.21875000000000000 0.031250000000000000 0.21874663198039715 0.031242347616667738 
0.25000000000000000 0.0000000000000000 0.0000000000000000 -4.5054926279761436e-06 -8.8528183028568745e-06 0.75175833875769149 2.2974309346717664e-07 0.0000000000000000 0.25000000000000000 0.0000000000000000 0.24999549450737202 -8.8528183028568745e-06 
0.25000000000000000 0.031250000000000000 0.0000000000000000 -3.7237072041773652e-06 -8.5150839220314630e-06 0.77147878375963364 2.4028211610169947e-07 -4.0156849077123470e-08 0.25000000000000000 0.031250000000000000 0.24999627629279583 0.031241484916077967 
0.28125000000000000 0.0000000000000000 0.0000000000000000 -4.8297892573507947e-06 -9.6801873793333669e-06 0.68294127439318641 2.1269564945612461e-07 0.0000000000000000 0.28125000000000000 0.0000000000000000 0.28124517021074263 -9.6801873793333669e-06 
0.28125000000000000 0.031250000000000000 0.0000000000000000 -4.0477286449819911e-06 -9.3724367758729051e-06 0.70037391985406294 2.1792632343241442e-07 -3.1795696185395115e-08 0.28125000000000000 0.031250000000000000 0.28124595227135502 0.031240627563224127 
0.31250000000000000 0.0000000000000000 0.0000000000000000 -5.1253822996247456e-06 -1.0506425745891177e-05 0.61912934960948041 1.9976314442583891e-07 0.0000000000000000 0.31250000000000000 0.0000000000000000 0.31249487461770037 -1.0506425745891177e-05 
0.31250000000000000 0.031250000000000000 0.0000000000000000 -4.3423618427477416e-06 -1.0226826438260349e-05 0.63525363617070230 2.0140532847732347e-07 -2.8306636861735133e-08 0.31250000000000000 0.031250000000000000 0.31249565763815723 0.031239773173561743 
0.34375000000000000 0.0000000000000000 0.0000000000000000 -5.3934728505067253e-06 -1.1332199779316829e-05 0.55925148599383023 1.8909860176459075e-07 0.0000000000000000 0.34375000000000000 0.0000000000000000 0.34374460652714950 -1.1332199779316829e-05 
0.34375000000000000 0.031250000000000000 0.0000000000000000 -4.6094165874881684e-06 -1.1079263468517843e-05 0.57468675046466611 1.8830129454561116e-07 -2.8036900713071510e-08 0.34375000000000000 0.031250000000000000 0.34374539058341252 0.031238920736531482 
0.37500000000000000 0.0000000000000000 0.0000000000000000 -5.6351403953469919e-06 -1.2157453711603346e-05 0.50270123579121062 1.7965542255486201e-07 0.0000000000000000 0.37500000000000000 0.0000000000000000 0.37499436485960463 -1.2157453711603346e-05 
0.37500000000000000 0.031250000000000000 0.0000000000000000 -4.8504129885483305e-06 -1.1929882126393811e-05 0.51784027118497045 1.7721085100300509e-07 -2.9899039739828008e-08 0.37500000000000000 0.031250000000000000 0.37499514958701147 0.031238070117873606 
0.40625000000000000 0.0000000000000000 0.0000000000000000 -5.8514222460317409e-06 -1.2981654859000114e-05 0.44914372210198295 1.7081731943451952e-07 0.0000000000000000 0.40625000000000000 0.0000000000000000 0.40624414857775398 -1.2981654859000114e-05 
0.40625000000000000 0.031250000000000000 0.0000000000000000 -5.0666978060383223e-06 -1.2778247629829203e-05 0.46423017414762424 1.6728656140169850e-07 -3.3147433099027477e-08 0.40625000000000000 0.031250000000000000 0.40624493330219397 0.031237221752370172 
0.43750000000000000 0.0000000000000000 0.0000000000000000 -6.0433593705859285e-06 -1.3803957503319618e-05 0.39840880712256022 1.6220860484153328e-07 0.0000000000000000 0.43750000000000000 0.0000000000000000 0.43749395664062946 -1.3803957503319618e-05 
0.43750000000000000 0.031250000000000000 0.0000000000000000 -5.2595207418447773e-06 -1.3623555498112427e-05 0.41358397657565688 1.5799978892629150e-07 -3.7250732804706441e-08 0.43750000000000000 0.031250000000000000 0.43749474047925824 0.031236376444501886 
0.46875000000000000 0.0000000000000000 0.0000000000000000 -6.2120235494979738e-06 -1.4623316690712236e-05 0.35042943061134074 1.5359340372299328e-07 0.0000000000000000 0.46875000000000000 0.0000000000000000 0.46874378797645050 -1.4623316690712236e-05 
0.46875000000000000 0.031250000000000000 0.0000000000000000 -5.4300847895872705e-06 -1.4464766326405196e-05 0.36576159333195757 1.4901214219597113e-07 -4.1816445405603111e-08 0.46875000000000000 0.031250000000000000 0.46874456991521035 0.031235535233673593 
0.50000000000000000 0.0000000000000000 0.0000000000000000 -6.3585339401844500e-06 -1.5438570003581492e-05 0.30520471746231487 1.4481946261461206e-07 0.0000000000000000 0.50000000000000000 0.0000000000000000 0.49999364146605979 -1.5438570003581492e-05 
0.50000000000000000 0.031250000000000000 0.0000000000000000 -5.5795797202165449e-06 -1.5300700266612671e-05 0.32070791689738604 1.4010252137402344e-07 -4.6543690461439770e-08 0.50000000000000000 0.031250000000000000 0.49999442042027981 0.031234699299733385 
0.53125000000000000 0.0000000000000000 0.0000000000000000 -6.4840676621095409e-06 -1.6248498378807130e-05 0.26277722341492088 1.3578559824651316e-07 0.0000000000000000 0.53125000000000000 0.0000000000000000 0.53124351593233787 -1.6248498378807130e-05 
0.53125000000000000 0.031250000000000000 0.0000000000000000 -5.7092045922149770e-06 -1.6130105648555086e-05 0.27842338177076026 1.3112440067580134e-07 -5.1191881881992377e-08 0.53125000000000000 0.031250000000000000 0.53124429079540780 0.031233869894351448 
0.56250000000000000 0.0000000000000000 0.0000000000000000 -6.5898671575893109e-06 -1.7051873178141059e-05 0.22321845966548504 1.2642249214429185e-07 0.0000000000000000 0.56250000000000000 0.0000000000000000 0.56249341013284238 -1.7051873178141059e-05 
0.56250000000000000 0.031250000000000000 0.0000000000000000 -5.8201831277495785e-06 -1.6951710862473382e-05 0.23894503321268523 1.2198038640181153e-07 -5.5558728050768059e-08 0.56250000000000000 0.031250000000000000 0.56249417981687222 0.031233048289137529 
0.59375000000000000 0.0000000000000000 0.0000000000000000 -6.6772460206356337e-06 -1.7847494511650416e-05 0.18661923078168452 1.1668166374969536e-07 0.0000000000000000 0.59375000000000000 0.0000000000000000 0.59374332275397934 -1.7847494511650416e-05 
0.59375000000000000 0.031250000000000000 0.0000000000000000 -5.9137744528014237e-06 -1.7764265665530398e-05 0.20233376488725144 1.1260737220876197e-07 -5.9463860223273965e-08 0.59375000000000000 0.031250000000000000 0.59374408622554720 0.031232235734334469 
0.62500000000000000 0.0000000000000000 0.0000000000000000 -6.7475943207432326e-06 -1.8634224553252994e-05 0.15308253147693437 1.0653004255498915e-07 0.0000000000000000 0.62500000000000000 0.0000000000000000 0.62499325240567927 -1.8634224553252994e-05 
0.62500000000000000 0.031250000000000000 0.0000000000000000 -5.9912807874335204e-06 -1.8566576414985240e-05 0.16866500164575393 1.0296880957056521e-07 -6.2735994754891610e-08 0.62500000000000000 0.031250000000000000 0.62499400871921251 0.031231433423585014 
0.65625000000000000 0.0000000000000000 0.0000000000000000 -6.8023839712289486e-06 -1.9411018897676539e-05 0.12271733565597036 9.5949137443421445e-08 0.0000000000000000 0.65625000000000000 0.0000000000000000 0.65624319761602878 -1.9411018897676539e-05 
0.65625000000000000 0.031250000000000000 0.0000000000000000 -6.0540530200009508e-06 -1.9357538836093740e-05 0.13802092544547628 9.3052411062080805e-08 -6.5202487937636776e-08 0.65625000000000000 0.031250000000000000 0.65624394594698010 0.031230642461163905 
0.68750000000000000 0.0000000000000000 0.0000000000000000 -6.8431742749871615e-06 -2.0176958695206454e-05 0.095631844288470061 8.4938232615028463e-08 0.0000000000000000 0.68750000000000000 0.0000000000000000 0.68749315682572509 -2.0176958695206454e-05 
0.68750000000000000 0.031250000000000000 0.0000000000000000 -6.1034945957326014e-06 -2.0136171528856086e-05 0.11048273675070591 8.2872400356832082e-08 -6.6680837434955115e-08 0.68750000000000000 0.031250000000000000 0.68749389650540416 0.031229863828471146 
0.71875000000000000 0.0000000000000000 0.0000000000000000 -6.8716173233474561e-06 -2.0931286261962936e-05 0.071924793686830538 7.3523394760369012e-08 0.0000000000000000 0.71875000000000000 0.0000000000000000 0.71874312838267651 -2.0931286261962936e-05 
0.71875000000000000 0.031250000000000000 0.0000000000000000 -6.1410637230549904e-06 -2.0901653362472003e-05 0.086121614033861746 7.2476711254282829e-08 -6.6972331723302658e-08 0.71875000000000000 0.031250000000000000 0.71874385893627679 0.031229098346637531 
0.75000000000000000 0.0000000000000000 0.0000000000000000 -6.8894623097713965e-06 -2.1673447037408594e-05 0.051673352533772095 6.1768258172985870e-08 0.0000000000000000 0.75000000000000000 0.0000000000000000 0.74999311053769036 -2.1673447037408594e-05 
0.75000000000000000 0.031250000000000000 0.0000000000000000 -6.1682734989510919e-06 -2.1653368120213122e-05 0.064987120831431114 6.1956768324070381e-08 -6.5858896157513189e-08 0.75000000000000000 0.031250000000000000 0.74999383172650103 0.031228346631879785 
0.78125000000000000 0.0000000000000000 0.0000000000000000 -6.8985568910329825e-06 -2.2403141095287159e-05 0.034916223284073879 4.9804667558365573e-08 0.0000000000000000 0.78125000000000000 0.0000000000000000 0.78124310144310893 -2.2403141095287159e-05 
0.78125000000000000 0.031250000000000000 0.0000000000000000 -6.1866891420132630e-06 -2.2390960178639787e-05 0.047092063174413695 5.1467244068410059e-08 -6.3105606659210799e-08 0.78125000000000000 0.031250000000000000 0.78124381331085802 0.031227609039821361 
0.81250000000000000 0.0000000000000000 0.0000000000000000 -6.9008421809768570e-06 -2.3120387740151746e-05 0.021630753851738755 3.7824405171905014e-08 0.0000000000000000 0.81250000000000000 0.0000000000000000 0.81249309915781909 -2.3120387740151746e-05 
0.81250000000000000 0.031250000000000000 0.0000000000000000 -6.1979210409492508e-06 -2.3114405495252548e-05 0.032393394957968003 4.1222990105615408e-08 -5.8472537732097027e-08 0.81250000000000000 0.031250000000000000 0.81249380207895905 0.031226885594504750 
0.84375000000000000 0.0000000000000000 0.0000000000000000 -6.8983353894353352e-06 -2.3825606728348321e-05 0.011704733356107125 2.6228611968114783e-08 0.0000000000000000 0.84375000000000000 0.0000000000000000 0.84374310166461053 -2.3825606728348321e-05 
0.84375000000000000 0.031250000000000000 0.0000000000000000 -6.2036117269426746e-06 -2.3824102476093889e-05 0.020770929442987050 3.1572328855616182e-08 -5.1749835824579904e-08 0.84375000000000000 0.031250000000000000 0.84374379638827290 0.031226175897523908 
0.87500000000000000 0.0000000000000000 0.0000000000000000 -6.8930893394114654e-06 -2.4519717780960727e-05 0.0049037434462677132 1.5295205584166134e-08 0.0000000000000000 0.87500000000000000 0.0000000000000000 0.87499310691066057 -2.4519717780960727e-05 
0.87500000000000000 0.031250000000000000 0.0000000000000000 -6.2054137295448286e-06 -2.4520986367740448e-05 0.012007955277033683 2.2758800626731653e-08 -4.2807264901798450e-08 0.87500000000000000 0.031250000000000000 0.87499379458627047 0.031225479013632259 
0.90625000000000000 0.0000000000000000 0.0000000000000000 -6.8871100071708288e-06 -2.5204253773822023e-05 0.00084326438433540100 6.3159876976363276e-09 0.0000000000000000 0.90625000000000000 0.0000000000000000 0.90624311288999282 -2.5204253773822023e-05 
0.90625000000000000 0.031250000000000000 0.0000000000000000 -6.2049532138469926e-06 -2.5206667200043670e-05 0.0057878091795811777 1.5621049919876491e-08 -3.1815410726458332e-08 0.90625000000000000 0.031250000000000000 0.90624379504678620 0.031224793332799955 
0.93750000000000000 0.0000000000000000 0.0000000000000000 -6.8821948136541039e-06 -2.5881456855527721e-05 -0.0010468588886461900 -1.3129470058596385e-09 0.0000000000000000 0.93750000000000000 0.0000000000000000 0.93749311780518629 -2.5881456855527721e-05 
0.93750000000000000 0.031250000000000000 0.0000000000000000 -6.2037667529938427e-06 -2.5883576932316793e-05 0.0017080757954800634 9.0269669721163286e-09 -1.9161732552447965e-08 0.93750000000000000 0.031250000000000000 0.93749379623324713 0.031224116423067685 
0.96875000000000000 0.0000000000000000 0.0000000000000000 -6.8796104544786704e-06 -2.6554245326407196e-05 -0.0015660942702688801 -3.2965685748034841e-09 0.0000000000000000 0.96875000000000000 0.0000000000000000 0.96874312038954569 -2.6554245326407196e-05 
0.96875000000000000 0.031250000000000000 0.0000000000000000 -6.2031796470108028e-06 -2.6555077082328085e-05 -0.00067104407161240436 7.4654790639455015e-09 -7.5164848317549277e-09 0.96875000000000000 0.031250000000000000 0.96874379682035283 0.031223444922917672 
1.0000000000000000 0.0000000000000000 0.0000000000000000 -6.8793565655188759e-06 -2.7225567025587549e-05 -0.0018208538740495670 0.0000000000000000 0.0000000000000000 1.0000000000000000 0.0000000000000000 0.99999312064343449 -2.7225567025587549e-05 
1.0000000000000000 0.031250000000000000 0.0000000000000000 -6.2039970456510774e-06 -2.7225331989900903e-05 -0.0015587121247463982 0.0000000000000000 3.2071604237992763e-09 1.0000000000000000 0.031250000000000000 0.99999379600295446 0.031222774668010100 
0.031250000000000000 0.062500000000000000 0.0000000000000000 -1.3958013713960297e-07 -1.1084936475373693e-06 1.9976042208886060 4.3061244254371260e-07 8.4520855981764958e-07 0.031250000000000000 0.062500000000000000 0.031249860419862861 0.062498891506352461 
0.0000000000000000 0.062500000000000000 0.0000000000000000 0.0000000000000000 0.0000000000000000 2.0019363164351218 0.0000000000000000 1.1876869430067278e-06 0.0000000000000000 0.062500000000000000 0.0000000000000000 0.062500000000000000 
0.062500000000000000 0.062500000000000000 0.0000000000000000 -4.9425662342613038e-07 -2.2863891902346546e-06 1.7596710111309266 1.0095936178627332e-06 4.0608441087984897e-07 0.062500000000000000 0.062500000000000000 0.062499505743376572 0.062497713610809767 
0.093750000000000000 0.062500000000000000 0.0000000000000000 -9.8381428535172964e-07 -3.4359228121515860e-06 1.4645344376070286 8.8400492217129726e-07 4.3800621577092736e-08 0.093750000000000000 0.062500000000000000 0.093749016185714643 0.062496564077187851 
0.12500000000000000 0.062500000000000000 0.0000000000000000 -1.4620662159091904e-06 -4.4744537772345396e-06 1.2373422615957159 5.8782864337017843e-07 -1.3506691461790459e-08 0.12500000000000000 0.062500000000000000 0.12499853793378408 0.062495525546222765 
0.15625000000000000 0.062500000000000000 0.0000000000000000 -1.9083183639412343e-06 -5.4451942498620413e-06 1.0744983450040064 4.3877626274839676e-07 9.4480620364986641e-10 0.15625000000000000 0.062500000000000000 0.15624809168163603 0.062494554805750148 
0.18750000000000000 0.062500000000000000 0.0000000000000000 -2.3194600748332786e-06 -6.3765907425779718e-06 0.95251399686118621 3.3993947206978228e-07 1.0985932191791731e-08 0.18750000000000000 0.062500000000000000 0.18749768053992513 0.062493623409257425 
0.21875000000000000 0.062500000000000000 0.0000000000000000 -2.6965680773462979e-06 -7.2851363055800768e-06 0.85513606247912366 2.8167425123341615e-07 1.8628235753331193e-08 0.21875000000000000 0.062500000000000000 0.21874730343192264 0.062492714863694419 
0.25000000000000000 0.062500000000000000 0.0000000000000000 -3.0416696659153199e-06 -8.1803345535594514e-06 0.77303220026826780 2.4397788325401103e-07 2.1488146726853792e-08 0.25000000000000000 0.062500000000000000 0.24999695833033408 0.062491819665446431 
0.28125000000000000 0.062500000000000000 0.0000000000000000 -3.3568346066209998e-06 -9.0675962458920553e-06 0.70094396234421685 2.1820998432482534e-07 2.1010434950121794e-08 0.28125000000000000 0.062500000000000000 0.28124664316539333 0.062490932403754106 
0.31250000000000000 0.062500000000000000 0.0000000000000000 -3.6439376867927204e-06 -9.9498491418797702e-06 0.63586401119379987 1.9939128468090010e-07 1.8095718395637726e-08 0.31250000000000000 0.062500000000000000 0.31249635606231324 0.062490050150858123 
0.34375000000000000 0.062500000000000000 0.0000000000000000 -3.9046348635215239e-06 -1.0828461477047948e-05 0.57602617496555142 1.8473302405683784e-07 1.3473198050862789e-08 0.34375000000000000 0.062500000000000000 0.34374609536513651 0.062489171538522952 
0.37500000000000000 0.062500000000000000 0.0000000000000000 -4.1404010618003594e-06 -1.1703796791461747e-05 0.52036904611831791 1.7261426265802526e-07 7.6797766372793790e-09 0.37500000000000000 0.062500000000000000 0.37499585959893822 0.062488296203208539 
0.40625000000000000 0.062500000000000000 0.0000000000000000 -4.3525787498694898e-06 -1.2575562241981450e-05 0.46824649816439967 1.6205065991375718e-07 1.1226602336283902e-09 0.40625000000000000 0.062500000000000000 0.40624564742125013 0.062487424437758017 
0.43750000000000000 0.062500000000000000 0.0000000000000000 -4.5424212344621010e-06 -1.3443036103713831e-05 0.41926629349822969 1.5242480518289551e-07 -5.8791047062458823e-09 0.43750000000000000 0.062500000000000000 0.43749545757876546 0.062486556963896288 
0.46875000000000000 0.062500000000000000 0.0000000000000000 -4.7111269637990055e-06 -1.4305221590846374e-05 0.37319640843388019 1.4333871853985009e-07 -1.3067503855593218e-08 0.46875000000000000 0.062500000000000000 0.46874528887303618 0.062485694778409151 
0.50000000000000000 0.062500000000000000 0.0000000000000000 -4.8598652904057143e-06 -1.5160954180284565e-05 0.32990835280370062 1.3453119920746961e-07 -2.0226783517365577e-08 0.50000000000000000 0.062500000000000000 0.49999514013470953 0.062484839045819716 
0.53125000000000000 0.062500000000000000 0.0000000000000000 -4.9897952882826082e-06 -1.6008978893929752e-05 0.28934144635463349 1.2582978534430269e-07 -2.7169772567867823e-08 0.53125000000000000 0.062500000000000000 0.53124501020471182 0.062483991021106071 
0.56250000000000000 0.062500000000000000 0.0000000000000000 -5.1020792902779825e-06 -1.6848008036799903e-05 0.25147932262110073 1.1712223192745908e-07 -3.3727153995807416e-08 0.56250000000000000 0.062500000000000000 0.56249489792070972 0.062483151991963200 
0.59375000000000000 0.062500000000000000 0.0000000000000000 -5.1978925464082069e-06 -1.7676766495976250e-05 0.21633364278431286 1.0833975045175023e-07 -3.9738554314799662e-08 0.59375000000000000 0.062500000000000000 0.59374480210745351 0.062482323233504021 
0.62500000000000000 0.062500000000000000 0.0000000000000000 -5.2784300766001775e-06 -1.8494029760294041e-05 0.18393192814530571 9.9447903132138262e-08 -4.5044883972985936e-08 0.62500000000000000 0.062500000000000000 0.62499472156992342 0.062481505970239708 
0.65625000000000000 0.062500000000000000 0.0000000000000000 -5.3449115000307177e-06 -1.9298658736334937e-05 0.15430743607809375 9.0443045685478514e-08 -4.9481740890656450e-08 0.65625000000000000 0.062500000000000000 0.65624465508849994 0.062480701341263663 
0.68750000000000000 0.062500000000000000 0.0000000000000000 -5.3985844033018992e-06 -2.0089634897664960e-05 0.12748954790165609 8.1352924234630273e-08 -5.2874046322889849e-08 0.68750000000000000 0.062500000000000000 0.68749460141559660 0.062479910365102344 
0.71875000000000000 0.062500000000000000 0.0000000000000000 -5.4407266804850946e-06 -2.0866099136783014e-05 0.10349346210926202 7.2241518340784758e-08 -5.5032413492607147e-08 0.71875000000000000 0.062500000000000000 0.71874455927331937 0.062479133900863217 
0.75000000000000000 0.062500000000000000 0.0000000000000000 -5.4726482590981014e-06 -2.1627397784949231e-05 0.082308271914527845 6.3213929749385288e-08 -5.5752488187793781e-08 0.75000000000000000 0.062500000000000000 0.74999452735174088 0.062478372602215053 
0.78125000000000000 0.062500000000000000 0.0000000000000000 -5.4956927452228002e-06 -2.2373139534379040e-05 0.063883083020554621 5.4431094760344918e-08 -5.4818679329192648e-08 0.78125000000000000 0.062500000000000000 0.78124450430725478 0.062477626860465631 
0.81250000000000000 0.062500000000000000 0.0000000000000000 -5.5112397673788861e-06 -2.3103267304906734e-05 0.048111904089161585 4.6085470151465766e-08 -5.2016978489162058e-08 0.81250000000000000 0.062500000000000000 0.81249448876023267 0.062476896732695096 
0.84375000000000000 0.062500000000000000 0.0000000000000000 -5.5207091411584718e-06 -2.3818149231002211e-05 0.034821379257257479 3.8484109738261364e-08 -4.7158363714995947e-08 0.84375000000000000 0.062500000000000000 0.84374447929085872 0.062476181850768996 
0.87500000000000000 0.062500000000000000 0.0000000000000000 -5.5255678545538941e-06 -2.4518692340191709e-05 0.023769276801490883 3.1655565464643595e-08 -4.0133739231912598e-08 0.87500000000000000 0.062500000000000000 0.87499447443214529 0.062475481307659807 
0.90625000000000000 0.062500000000000000 0.0000000000000000 -5.5273398631749469e-06 -2.5206480752318636e-05 0.014678552041805050 2.6393062031224205e-08 -3.1005206983708944e-08 0.90625000000000000 0.062500000000000000 0.90624447266013686 0.062474793519247680 
0.93750000000000000 0.062500000000000000 0.0000000000000000 -5.5276117413733259e-06 -2.5883934954784687e-05 0.0073228032554191261 2.0070264496125589e-08 -2.0163602616743909e-08 0.93750000000000000 0.062500000000000000 0.93749447238825867 0.062474116065045215 
0.96875000000000000 0.062500000000000000 0.0000000000000000 -5.5280153227588743e-06 -2.6554487260011399e-05 0.0017416318783702101 1.9078236865599194e-08 -9.1325777245367057e-09 0.96875000000000000 0.062500000000000000 0.96874447198467728 0.062473445512739985 
1.0000000000000000 0.062500000000000000 0.0000000000000000 -5.5301157011515476e-06 -2.7222775475949925e-05 -0.0010074352865519489 0.0000000000000000 1.1009842833137865e-09 1.0000000000000000 0.062500000000000000 0.99999446988429896 0.062472777224524052 
0.031250000000000000 0.093750000000000000 0.0000000000000000 -8.6092535763662296e-08 -9.1554842703923698e-07 1.7296075447789885 2.2864489706348937e-07 7.9256064978652115e-07 0.031250000000000000 0.093750000000000000 0.031249913907464236 0.093749084451572942 
0.0000000000000000 0.093750000000000000 0.0000000000000000 0.0000000000000000 0.0000000000000000 1.7051733960044875 0.0000000000000000 9.3161681894761009e-07 0.0000000000000000 0.093750000000000000 0.0000000000000000 0.093750000000000000 
0.062500000000000000 0.093750000000000000 0.0000000000000000 -3.0493735084344857e-07 -1.9368451242774643e-06 1.6096615854519936 5.5648189137644447e-07 5.8233855822315583e-07 0.062500000000000000 0.093750000000000000 0.062499695062649165 0.093748063154875716 
0.093750000000000000 0.093750000000000000 0.0000000000000000 -6.3331707134461199e-07 -2.9974394752487457e-06 1.4201639680975753 6.5411339202040904e-07 2.5517998954423857e-07 0.093750000000000000 0.093750000000000000 0.093749366682928659 0.093747002560524748 
0.12500000000000000 0.093750000000000000 0.0000000000000000 -1.0209978618440156e-06 -4.0392478625009425e-06 1.2263568163807865 5.6174699842007643e-07 9.6191324467682692e-08 0.12500000000000000 0.093750000000000000 0.12499897900213817 0.093745960752137494 
0.15625000000000000 0.093750000000000000 0.0000000000000000 -1.4106526645540734e-06 -5.0350271627823664e-06 1.0686085039784825 4.3922531420304919e-07 5.7401388692398914e-08 0.15625000000000000 0.093750000000000000 0.15624858934733546 0.093744964972837228 
0.18750000000000000 0.093750000000000000 0.0000000000000000 -1.7833767570215547e-06 -5.9963162289253230e-06 0.94556939899247106 3.4472005439619068e-07 4.7034948207546115e-08 0.18750000000000000 0.093750000000000000 0.18749821662324298 0.093744003683771074 
0.21875000000000000 0.093750000000000000 0.0000000000000000 -2.1325528368232556e-06 -6.9349345953409042e-06 0.84688121236617164 2.8434156930029869e-07 4.5213309108236568e-08 0.21875000000000000 0.093750000000000000 0.21874786744716321 0.093743065065404654 
0.25000000000000000 0.093750000000000000 0.0000000000000000 -2.4561924082266400e-06 -7.8590632901049672e-06 0.76435123195193944 2.4340146272344288e-07 4.2655130528709134e-08 0.25000000000000000 0.093750000000000000 0.24999754380759179 0.093742140936709892 
0.28125000000000000 0.093750000000000000 0.0000000000000000 -2.7541715821815948e-06 -8.7738047897085152e-06 0.69272629886351289 2.1512599419753157e-07 3.8682219091120438e-08 0.28125000000000000 0.093750000000000000 0.28124724582841781 0.093741226195210289 
0.31250000000000000 0.093750000000000000 0.0000000000000000 -3.0271256550457188e-06 -9.6820880991637926e-06 0.62879991542951419 1.9443780607054408e-07 3.3162830473525751e-08 0.31250000000000000 0.093750000000000000 0.31249697287434497 0.093740317911900836 
0.34375000000000000 0.093750000000000000 0.0000000000000000 -3.2759897077306533e-06 -1.0585363689132259e-05 0.57061127416228141 1.7846858043454267e-07 2.6466823884617557e-08 0.34375000000000000 0.093750000000000000 0.34374672401029227 0.093739414636310872 
0.37500000000000000 0.093750000000000000 0.0000000000000000 -3.5018062044659144e-06 -1.1484083006023616e-05 0.51694296594352940 1.6547293183146906e-07 1.8939498614065745e-08 0.37500000000000000 0.093750000000000000 0.37499649819379549 0.093738515916993989 
0.40625000000000000 0.093750000000000000 0.0000000000000000 -3.7056471009950370e-06 -1.2378024259064549e-05 0.46702723113002936 1.5437447195754734e-07 1.0886252178814543e-08 0.40625000000000000 0.093750000000000000 0.40624629435289900 0.093737621975740940 
0.43750000000000000 0.093750000000000000 0.0000000000000000 -3.8885853290776178e-06 -1.3266515913163047e-05 0.42037560518399569 1.4448996996436010e-07 2.5641101184617177e-09 0.43750000000000000 0.093750000000000000 0.43749611141467087 0.093736733484086843 
0.46875000000000000 0.093750000000000000 0.0000000000000000 -4.0516871772001150e-06 -1.4148592636689237e-05 0.37667783114969317 1.3537491645406225e-07 -5.8085493003494006e-09 0.46875000000000000 0.093750000000000000 0.46874594831282274 0.093735851407363305 
0.50000000000000000 0.093750000000000000 0.0000000000000000 -4.1960129767546011e-06 -1.5023106312443505e-05 0.33573974692959357 1.2673589466872337e-07 -1.4042165215832350e-08 0.50000000000000000 0.093750000000000000 0.49999580398702331 0.093734976893687552 