# For a description of the Tecplot format see the Tecplot User's guide.
#
Variables=x,y,z,s_u,s_v,s_p,x,y,ref_u,ref_v,u,v
Zone f=fepoint, n=1089, e=2048, et=quadrilateral, c=black
0.00000 0.00000 0.00000 0.0000000000000000 0.0000000000000000 2.6504763650936987 0.0000000000000000 0.0000000000000000 0.0000000000000000 0.0000000000000000 0.0000000000000000 0.0000000000000000 
0.031250000000000000 0.0000000000000000 0.0000000000000000 -1.0635290937020089e-06 -2.2734943472219246e-06 2.1723565496711421 3.3706336806310118e-06 0.0000000000000000 0.031250000000000000 0.0000000000000000 0.031248936470906302 -2.2734943472219246e-06 
0.031250000000000000 0.031250000000000000 0.0000000000000000 -2.7054601729962891e-07 -1.4436072510369793e-06 2.2716515990557475 2.0532132847407354e-06 6.0358300852352366e-07 0.031250000000000000 0.031250000000000000 0.031249729453982699 0.031248556392748959 
0.0000000000000000 0.031250000000000000 0.0000000000000000 0.0000000000000000 0.0000000000000000 2.4097713657051436 0.0000000000000000 2.1922780952972171e-06 0.0000000000000000 0.031250000000000000 0.0000000000000000 0.031250000000000000 
0.062500000000000000 0.0000000000000000 0.0000000000000000 -1.7758946636972062e-06 -3.5259740104319832e-06 1.6444956243511111 1.1901359792430066e-06 0.0000000000000000 0.062500000000000000 0.0000000000000000 0.062498224105336307 -3.5259740104319832e-06 
0.062500000000000000 0.031250000000000000 0.0000000000000000 -9.4536924720408658e-07 -2.8567100423326225e-06 1.7822795051850715 1.1974083474246096e-06 -6.3467270048376678e-07 0.062500000000000000 0.031250000000000000 0.062499054630752789 0.031247143289957671 
0.093750000000000000 0.0000000000000000 0.0000000000000000 -2.3608182318720353e-06 -4.5407761900433054e-06 1.3408487947553518 7.3523719956738800e-07 0.0000000000000000 0.093750000000000000 0.0000000000000000 0.093747639181768136 -4.5407761900433054e-06 
0.093750000000000000 0.031250000000000000 0.0000000000000000 -1.5404284082597368e-06 -3.9733707778090479e-06 1.4324192521535430 8.7727873009590624e-07 -3.0289489233419854e-07 0.093750000000000000 0.031250000000000000 0.093748459571591738 0.031246026629222188 
0.12500000000000000 0.0000000000000000 0.0000000000000000 -2.8739561970124427e-06 -5.4606048491815784e-06 1.1519941921123655 4.8434313898787479e-07 0.0000000000000000 0.12500000000000000 0.0000000000000000 0.12499712604380299 -5.4606048491815784e-06 
0.12500000000000000 0.031250000000000000 0.0000000000000000 -2.0687136395175615e-06 -4.9613632421746361e-06 1.2108315521325388 5.5410843718156185e-07 -2.0452939418864609e-07 0.12500000000000000 0.031250000000000000 0.12499793128636048 0.031245038636757826 
0.15625000000000000 0.0000000000000000 0.0000000000000000 -3.3366846544758282e-06 -6.3339797074862003e-06 1.0195473269141682 3.5855604669291912e-07 0.0000000000000000 0.15625000000000000 0.0000000000000000 0.15624666331534554 -6.3339797074862003e-06 
0.15625000000000000 0.031250000000000000 0.0000000000000000 -2.5431991263555917e-06 -5.8856920102919543e-06 1.0593899251584167 4.0790893732668839e-07 -1.2174704740202762e-07 0.15625000000000000 0.031250000000000000 0.15624745680087362 0.031244114307989707 
0.18750000000000000 0.0000000000000000 0.0000000000000000 -3.7588935841145808e-06 -7.1830487588699746e-06 0.91676037954794898 2.9276751779137826e-07 0.0000000000000000 0.18750000000000000 0.0000000000000000 0.18749624110641591 -7.1830487588699746e-06 
0.18750000000000000 0.031250000000000000 0.0000000000000000 -2.9727130284110000e-06 -6.7763092508657584e-06 0.94568482185301350 3.2327377032716375e-07 -7.6046543537568549e-08 0.18750000000000000 0.031250000000000000 0.18749702728697160 0.031243223690749135 
0.21875000000000000 0.0000000000000000 0.0000000000000000 -4.1457968362303956e-06 -8.0193577968674401e-06 0.83070954691363819 2.5446017205183223e-07 0.0000000000000000 0.21875000000000000 0.0000000000000000 0.21874585420316381 -8.0193577968674401e-06 
0.21875000000000000 0.031250000000000000 0.0000000000000000 -3.3632868886178673e-06 -7.6486230424417407e-06 0.85324026011447007 2.7283441073379597e-07 -4.8915970977770580e-08 0.21875000000000000 0.031250000000000000 0.21874663671311137 0.031242351376957554 
0.25000000000000000 0.0000000000000000 0.0000000000000000 -4.5004639178302319e-06 -8.8492815199566988e-06 0.75490124142041370 2.3025064498702446e-07 0.0000000000000000 0.25000000000000000 0.0000000000000000 0.24999549953608216 -8.8492815199566988e-06 
0.25000000000000000 0.031250000000000000 0.0000000000000000 -3.7191264548534311e-06 -8.5110180433956692e-06 0.77364892117813477 2.4063504457912065e-07 -3.3574499589212434e-08 0.25000000000000000 0.031250000000000000 0.24999628087354517 0.031241488981956608 
0.28125000000000000 0.0000000000000000 0.0000000000000000 -4.8249107775721239e-06 -9.6763181266411310e-06 0.68591932921837362 2.1346791397043759e-07 0.0000000000000000 0.28125000000000000 0.0000000000000000 0.28124517508922242 -9.6763181266411310e-06 
0.28125000000000000 0.031250000000000000 0.0000000000000000 -4.0432665416907583e-06 -9.3680833977377114e-06 0.70245036055110399 2.1843598317348590e-07 -2.5649174411829715e-08 0.28125000000000000 0.031250000000000000 0.28124595673345837 0.031240631916602261 
0.31250000000000000 0.0000000000000000 0.0000000000000000 -5.1206193806526145e-06 -1.0502231071842047e-05 0.62189308328404913 2.0071520125100873e-07 0.0000000000000000 0.31250000000000000 0.0000000000000000 0.31249487938061937 -1.0502231071842047e-05 
0.31250000000000000 0.031250000000000000 0.0000000000000000 -4.3379956036842451e-06 -1.0222191973601607e-05 0.63718141119253113 2.0198619869602357e-07 -2.2562312983020481e-08 0.31250000000000000 0.031250000000000000 0.31249566200439632 0.031239777808026396 
0.34375000000000000 0.0000000000000000 0.0000000000000000 -5.3888031260885993e-06 -1.1327682758922722e-05 0.56177096647060409 1.9017284027121579e-07 0.0000000000000000 0.34375000000000000 0.0000000000000000 0.34374461119687388 -1.1327682758922722e-05 
0.34375000000000000 0.031250000000000000 0.0000000000000000 -4.6051311072067917e-06 -1.1074349651334586e-05 0.57643578678745155 1.8890854242598139e-07 -2.2695042574373256e-08 0.34375000000000000 0.031250000000000000 0.34374539486889283 0.031238925650348665 
0.37500000000000000 0.0000000000000000 0.0000000000000000 -5.6305500370923849e-06 -1.2152616043610164e-05 0.50495858912205915 1.8081238784691700e-07 0.0000000000000000 0.37500000000000000 0.0000000000000000 0.37499436944996289 -1.2152616043610164e-05 
0.37500000000000000 0.031250000000000000 0.0000000000000000 -4.8461986303105466e-06 -1.1924689239189649e-05 0.51939500671311534 1.7782159225854473e-07 -2.4975004277779050e-08 0.37500000000000000 0.031250000000000000 0.37499515380136966 0.031238075310760810 
0.40625000000000000 0.0000000000000000 0.0000000000000000 -5.8469032307313417e-06 -1.2976498059701335e-05 0.45112874288419397 1.7202853368281267e-07 0.0000000000000000 0.40625000000000000 0.0000000000000000 0.40624415309676926 -1.2976498059701335e-05 
0.40625000000000000 0.031250000000000000 0.0000000000000000 -5.0625487850079482e-06 -1.2772775900275108e-05 0.46558339495596329 1.6788906837306596e-07 -2.8661113929054632e-08 0.40625000000000000 0.031250000000000000 0.40624493745121498 0.031237227224099721 
0.43750000000000000 0.0000000000000000 0.0000000000000000 -6.0389075681992935e-06 -1.3798483446284321e-05 0.40011655374806038 1.6345217770086416e-07 0.0000000000000000 0.43750000000000000 0.0000000000000000 0.43749396109243183 -1.3798483446284321e-05 
0.43750000000000000 0.031250000000000000 0.0000000000000000 -5.2554339532548988e-06 -1.3617805649362287e-05 0.41473349516269714 1.5858739891577185e-07 -3.3221069877866769e-08 0.43750000000000000 0.031250000000000000 0.43749474456604670 0.031236382194350636 
0.46875000000000000 0.0000000000000000 0.0000000000000000 -6.2076373966455562e-06 -1.4617527840418663e-05 0.35185895536988371 1.5485136324624045e-07 0.0000000000000000 0.46875000000000000 0.0000000000000000 0.46874379236260327 -1.4617527840418663e-05 
0.46875000000000000 0.031250000000000000 0.0000000000000000 -5.4260589528102927e-06 -1.4458739750848801e-05 0.36670856038297828 1.4958016432951348e-07 -3.8258898434371895e-08 0.46875000000000000 0.031250000000000000 0.46874457394104718 0.031235541260249151 
0.50000000000000000 0.0000000000000000 0.0000000000000000 -6.3542135126142640e-06 -1.5432469506455375e-05 0.30635843514688399 1.4607606498404530e-07 0.0000000000000000 0.50000000000000000 0.0000000000000000 0.49999364578648736 -1.5432469506455375e-05 
0.50000000000000000 0.031250000000000000 0.0000000000000000 -5.5756147425158176e-06 -1.5294399039643664e-05 0.32145601979736038 1.4064671761613826e-07 -4.3469206720290352e-08 0.50000000000000000 0.031250000000000000 0.49999442438525749 0.031234705600960356 
0.53125000000000000 0.0000000000000000 0.0000000000000000 -6.4798140120354574e-06 -1.6242090089427703e-05 0.26366066255001780 1.3702611950655634e-07 0.0000000000000000 0.53125000000000000 0.0000000000000000 0.53124352018598797 -1.6242090089427703e-05 
0.53125000000000000 0.031250000000000000 0.0000000000000000 -5.7053010830883151e-06 -1.6123532478562116e-05 0.27897852696950259 1.3164020646440380e-07 -4.8606515777175004e-08 0.53125000000000000 0.031250000000000000 0.53124429469891687 0.031233876467521435 
0.56250000000000000 0.0000000000000000 0.0000000000000000 -6.5856818218652902e-06 -1.7045161657389877e-05 0.22384027776339124 1.2763221885878498e-07 0.0000000000000000 0.56250000000000000 0.0000000000000000 0.56249341431817812 -1.7045161657389877e-05 
0.56250000000000000 0.031250000000000000 0.0000000000000000 -5.8163420137414388e-06 -1.6944869016777107e-05 0.23931531250273583 1.2246245323487088e-07 -5.3463443269959193e-08 0.56250000000000000 0.031250000000000000 0.56249418365798631 0.031233055130983223 
0.59375000000000000 0.0000000000000000 0.0000000000000000 -6.6731306329813248e-06 -1.7840485012486088e-05 0.18699144679097143 1.1784492565207970e-07 0.0000000000000000 0.59375000000000000 0.0000000000000000 0.59374332686936704 -1.7840485012486088e-05 
0.59375000000000000 0.031250000000000000 0.0000000000000000 -5.9099966553760602e-06 -1.7757158884794044e-05 0.20252961322051635 1.1304923401955750e-07 -5.7854243957187859e-08 0.59375000000000000 0.031250000000000000 0.59374409000334449 0.031232242841115202 
0.62500000000000000 0.0000000000000000 0.0000000000000000 -6.7435502788800159e-06 -1.8626922997009946e-05 0.15322096165883539 1.0762921902222545e-07 0.0000000000000000 0.62500000000000000 0.0000000000000000 0.62499325644972115 -1.8626922997009946e-05 
0.62500000000000000 0.031250000000000000 0.0000000000000000 -5.9875669351710897e-06 -1.8559208814063032e-05 0.16869950554220337 1.0336260337010894e-07 -6.1601712010430826e-08 0.62500000000000000 0.031250000000000000 0.62499401243306485 0.031231440791185939 
0.65625000000000000 0.0000000000000000 0.0000000000000000 -6.7984121213825203e-06 -1.9403431833534921e-05 0.12264222604156905 9.6963606605698180e-08 0.0000000000000000 0.65625000000000000 0.0000000000000000 0.65624320158787863 -1.9403431833534921e-05 
0.65625000000000000 0.031250000000000000 0.0000000000000000 -6.0504031729438935e-06 -1.9349914779373989e-05 0.13791025815539401 9.3388651447072018e-08 -6.4526350591167472e-08 0.65625000000000000 0.031250000000000000 0.65624394959682697 0.031230650085220624 
0.68750000000000000 0.0000000000000000 0.0000000000000000 -6.8392745851870743e-06 -2.0169093224418063e-05 0.095368672610223484 8.5843420861418000e-08 0.0000000000000000 0.68750000000000000 0.0000000000000000 0.68749316072541478 -2.0169093224418063e-05 
0.68750000000000000 0.031250000000000000 0.0000000000000000 -6.0999079660863433e-06 -2.0128295459068897e-05 0.11024668553070933 8.3139935456978898e-08 -6.6437384818114453e-08 0.68750000000000000 0.031250000000000000 0.68749390009203382 0.031229871704540935 
0.71875000000000000 0.0000000000000000 0.0000000000000000 -6.8677885276214978e-06 -2.0923149894808045e-05 0.071505157661300070 7.4289929330845067e-08 0.0000000000000000 0.71875000000000000 0.0000000000000000 0.71874313221147235 -2.0923149894808045e-05 
0.71875000000000000 0.031250000000000000 0.0000000000000000 -6.1375383852645114e-06 -2.0893529552353358e-05 0.085784122071048088 7.2662957936379422e-08 -6.7125863428065895e-08 0.71875000000000000 0.031250000000000000 0.71874386246161481 0.031229106470447642 
0.75000000000000000 0.0000000000000000 0.0000000000000000 -6.8857015226094667e-06 -2.1665047433362427e-05 0.051135735611147315 6.2362416316002899e-08 0.0000000000000000 0.75000000000000000 0.0000000000000000 0.74999311429847737 -2.1665047433362427e-05 
0.75000000000000000 0.031250000000000000 0.0000000000000000 -6.1648060969667085e-06 -2.1645000306834582e-05 0.064576669986646504 6.2048980449332339e-08 -6.6360892402851503e-08 0.75000000000000000 0.031250000000000000 0.74999383519390317 0.031228354999693165 
0.78125000000000000 0.0000000000000000 0.0000000000000000 -6.8948592268798876e-06 -2.2394485621794038e-05 0.034306247013386970 5.0189052659805423e-08 0.0000000000000000 0.78125000000000000 0.0000000000000000 0.78124310514077300 -2.2394485621794038e-05 
0.78125000000000000 0.031250000000000000 0.0000000000000000 -6.1832746299018723e-06 -2.2382351037096791e-05 0.046641571763926075 5.1454365228046898e-08 -6.3891850492539626e-08 0.78125000000000000 0.031250000000000000 0.78124381672537002 0.031227617648962900 
0.81250000000000000 0.0000000000000000 0.0000000000000000 -6.8972004669566123e-06 -2.3111482770660491e-05 0.021000132537805041 3.7965432673514372e-08 0.0000000000000000 0.81250000000000000 0.0000000000000000 0.81249310279953291 -2.3111482770660491e-05 
0.81250000000000000 0.031250000000000000 0.0000000000000000 -6.1945525379380526e-06 -2.3105555917167107e-05 0.031939011179242721 4.1102223536260690e-08 -5.9459405045125849e-08 0.81250000000000000 0.031250000000000000 0.81249380544746208 0.031226894444082835 
0.84375000000000000 0.0000000000000000 0.0000000000000000 -6.8947401732755857e-06 -2.3816456653066842e-05 0.011108116067258055 2.6100353119749384e-08 0.0000000000000000 0.84375000000000000 0.0000000000000000 0.84374310525982688 -2.3816456653066842e-05 
0.84375000000000000 0.031250000000000000 0.0000000000000000 -6.2002806557806751e-06 -2.3815010685501273e-05 0.020349006233832689 3.1352338917967599e-08 -5.2833595757360152e-08 0.84375000000000000 0.031250000000000000 0.84374379971934410 0.031226184989314499 
0.87500000000000000 0.0000000000000000 0.0000000000000000 -6.8895294346645445e-06 -2.4510323706658522e-05 0.0043915990948067496 1.4903086096065152e-08 0.0000000000000000 0.87500000000000000 0.0000000000000000 0.87499311047056538 -2.4510323706658522e-05 
0.87500000000000000 0.031250000000000000 0.0000000000000000 -6.2021104584112700e-06 -2.4511646978961869e-05 0.011648838544388473 2.2481610135104247e-08 -4.3855676580438070e-08 0.87500000000000000 0.031250000000000000 0.87499379788954157 0.031225488353021035 
0.90625000000000000 0.0000000000000000 0.0000000000000000 -6.8835740366221015e-06 -2.5194612393912334e-05 0.00045263054421407602 5.7207696183437018e-09 0.0000000000000000 0.90625000000000000 0.0000000000000000 0.90624311642596334 -2.5194612393912334e-05 
0.90625000000000000 0.031250000000000000 0.0000000000000000 -6.2016686063705736e-06 -2.5197070745512129e-05 0.0055080716468634506 1.5349848901326707e-08 -3.2695657350987700e-08 0.90625000000000000 0.031250000000000000 0.90624379833139368 0.031224802929254492 
0.93750000000000000 0.0000000000000000 0.0000000000000000 -6.8786734312118046e-06 -2.5871559183916327e-05 -0.0013081387123686950 -2.0720786315552113e-09 0.0000000000000000 0.93750000000000000 0.0000000000000000 0.93749312132656881 -2.5871559183916327e-05 
0.93750000000000000 0.031250000000000000 0.0000000000000000 -6.2004943535132091e-06 -2.5873710028451667e-05 0.0014981257483039252 8.8568608708160024e-09 -1.9670955796761056e-08 0.93750000000000000 0.031250000000000000 0.93749379950564649 0.031224126289971548 
0.96875000000000000 0.0000000000000000 0.0000000000000000 -6.8760988783461236e-06 -2.6544077925447554e-05 -0.0017284108414492398 -3.8092983250820008e-09 0.0000000000000000 0.96875000000000000 0.0000000000000000 0.96874312390112161 -2.6544077925447554e-05 
0.96875000000000000 0.031250000000000000 0.0000000000000000 -6.1999188259145945e-06 -2.6544925903611484e-05 -0.00084128604586400531 7.6262401487933713e-09 -7.6784359687642019e-09 0.96875000000000000 0.031250000000000000 0.96874380008117422 0.031223455074096389 
1.0000000000000000 0.0000000000000000 0.0000000000000000 -6.8758558383757292e-06 -2.7215108406993614e-05 -0.0019849378779908723 0.0000000000000000 0.0000000000000000 1.0000000000000000 0.0000000000000000 0.99999312414416164 -2.7215108406993614e-05 
1.0000000000000000 0.031250000000000000 0.0000000000000000 -6.2007524150166796e-06 -2.7214884212634078e-05 -0.0017204996796087336 0.0000000000000000 3.7124387141061402e-09 1.0000000000000000 0.031250000000000000 0.99999379924758502 0.031222785115787365 
0.031250000000000000 0.062500000000000000 0.0000000000000000 -1.3599427146305745e-07 -1.1077871789337838e-06 2.0164359505669052 4.7217585471213208e-07 8.5964417576170363e-07 0.031250000000000000 0.062500000000000000 0.031249864005728541 0.062498892212821067 
0.0000000000000000 0.062500000000000000 0.0000000000000000 0.0000000000000000 0.0000000000000000 2.0249812532871831 0.0000000000000000 1.2468271772315126e-06 0.0000000000000000 0.062500000000000000 0.0000000000000000 0.062500000000000000 
0.062500000000000000 0.062500000000000000 0.0000000000000000 -4.8911821749966719e-07 -2.2848099812509215e-06 1.7687912724495203 1.0376856389751922e-06 4.2143858502078497e-07 0.062500000000000000 0.062500000000000000 0.062499510881782509 0.062497715190018739 
0.093750000000000000 0.062500000000000000 0.0000000000000000 -9.7889899086997145e-07 -3.4339439001511448e-06 1.4663614728352357 8.9466837584119301e-07 4.3927008070600212e-08 0.093750000000000000 0.062500000000000000 0.093749021101009133 0.062496566056099857 
0.12500000000000000 0.062500000000000000 0.0000000000000000 -1.4574553010254188e-06 -4.4717868518944854e-06 1.2372942371316382 5.8739883013208544e-07 -1.0984148122639733e-08 0.12500000000000000 0.062500000000000000 0.12499854254469898 0.062495528213148098 
0.15625000000000000 0.062500000000000000 0.0000000000000000 -1.9039477250669204e-06 -5.4419430753997250e-06 1.0744802026883649 4.3671927313679790e-07 4.4315473436910513e-09 0.15625000000000000 0.062500000000000000 0.15624809605227494 0.062494558056924603 
0.18750000000000000 0.062500000000000000 0.0000000000000000 -2.3152510380846344e-06 -6.3728958230141169e-06 0.95292579720689707 3.3844723361768960e-07 1.4209626227506367e-08 0.18750000000000000 0.062500000000000000 0.18749768474896192 0.062493627104176989 
0.21875000000000000 0.062500000000000000 0.0000000000000000 -2.6924703550041562e-06 -7.2810939722929626e-06 0.85586439307081597 2.8084700349448323e-07 2.1534388672128599e-08 0.21875000000000000 0.062500000000000000 0.21874730752964497 0.062492718906027707 
0.25000000000000000 0.062500000000000000 0.0000000000000000 -3.0376541887254553e-06 -8.1759975150536957e-06 0.77391019199041977 2.4370130735654271e-07 2.4015548841930920e-08 0.25000000000000000 0.062500000000000000 0.24999696234581129 0.062491824002484937 
0.28125000000000000 0.062500000000000000 0.0000000000000000 -3.3528854386651276e-06 -9.0629894184062843e-06 0.70184930623563446 2.1825370272592751e-07 2.3224912952349159e-08 0.28125000000000000 0.062500000000000000 0.28124664711456132 0.062490937010581595 
0.31250000000000000 0.062500000000000000 0.0000000000000000 -3.6400461990895761e-06 -9.9449827361278805e-06 0.63672401661086575 1.9960850971041679e-07 2.0042895994567034e-08 0.31250000000000000 0.062500000000000000 0.31249635995380093 0.062490055017263881 
0.34375000000000000 0.062500000000000000 0.0000000000000000 -3.9007964805517504e-06 -1.0823338810563714e-05 0.57680215012278213 1.8503583198494988e-07 1.5182759274717012e-08 0.34375000000000000 0.062500000000000000 0.34374609920351945 0.062489176661189437 
0.37500000000000000 0.062500000000000000 0.0000000000000000 -4.1366135580541582e-06 -1.1698418440009844e-05 0.52104241694630293 1.7295370229948436e-07 9.1672866407738440e-09 0.37500000000000000 0.062500000000000000 0.37499586338644192 0.062488301581559991 
0.40625000000000000 0.062500000000000000 0.0000000000000000 -4.3488413423066641e-06 -1.2569928055371465e-05 0.46880989319780580 1.6240029632213019e-07 2.3952116258555915e-09 0.40625000000000000 0.062500000000000000 0.40624565115865768 0.062487430071944627 
0.43750000000000000 0.062500000000000000 0.0000000000000000 -4.5387340589555573e-06 -1.3437146103727460e-05 0.41971848880782420 1.5277014328128929e-07 -4.8185033402201151e-09 0.43750000000000000 0.062500000000000000 0.43749546126594102 0.062486562853896276 
0.46875000000000000 0.062500000000000000 0.0000000000000000 -4.7074907309868521e-06 -1.4299076316513423e-05 0.37353965516427556 1.4367135039949861e-07 -1.2217171131456925e-08 0.46875000000000000 0.062500000000000000 0.46874529250926900 0.062485700923683489 
0.50000000000000000 0.062500000000000000 0.0000000000000000 -4.8562810265881526e-06 -1.5154554772920168e-05 0.33014704371097997 1.3484562599550443e-07 -1.9584717680221060e-08 0.50000000000000000 0.062500000000000000 0.49999514371897341 0.062484845445227082 
0.53125000000000000 0.062500000000000000 0.0000000000000000 -4.9862641180368913e-06 -1.6002327064673017e-05 0.28948150824239288 1.2612171493636117e-07 -2.6732680198549217e-08 0.53125000000000000 0.062500000000000000 0.53124501373588195 0.062483997672935325 
0.56250000000000000 0.062500000000000000 0.0000000000000000 -5.0986022394564143e-06 -1.6841105981794806e-05 0.25152800276238269 1.1738765009332440e-07 -3.3489826205798766e-08 0.56250000000000000 0.062500000000000000 0.56249490139776059 0.062483158894018211 
0.59375000000000000 0.062500000000000000 0.0000000000000000 -5.1944703530902212e-06 -1.7669616784527518e-05 0.21629951655704224 1.0857439239214900e-07 -3.9693378140202017e-08 0.59375000000000000 0.062500000000000000 0.59374480552964692 0.062482330383215483 
0.62500000000000000 0.062500000000000000 0.0000000000000000 -5.2750630012119069e-06 -1.8486635200084628e-05 0.18382503665273017 9.9646953618777970e-08 -4.5181354763139204e-08 0.62500000000000000 0.062500000000000000 0.62499472493699881 0.062481513364799908 
0.65625000000000000 0.062500000000000000 0.0000000000000000 -5.3415991280072523e-06 -1.9291022207015820e-05 0.15413949664688334 9.0600996662382243e-08 -4.9785889853442698e-08 0.65625000000000000 0.062500000000000000 0.65624465840087198 0.062480708977792988 
0.68750000000000000 0.062500000000000000 0.0000000000000000 -5.3953254365349633e-06 -2.0081759134898077e-05 0.12727418012830169 8.1463684741891673e-08 -5.3327731796011186e-08 0.68750000000000000 0.062500000000000000 0.68749460467456347 0.062479918240865094 
0.71875000000000000 0.062500000000000000 0.0000000000000000 -5.4375187197372328e-06 -2.0857986441462826e-05 0.10324633907944024 7.2298763593876192e-08 -5.5612446107019998e-08 0.71875000000000000 0.062500000000000000 0.71874456248128027 0.062479142013558538 
0.75000000000000000 0.062500000000000000 0.0000000000000000 -5.4694875918125785e-06 -2.1619049627774994e-05 0.082047020947920393 6.3212563561506321e-08 -5.6429594327396987e-08 0.75000000000000000 0.062500000000000000 0.74999453051240816 0.062478380950372225 
0.78125000000000000 0.062500000000000000 0.0000000000000000 -5.4925741799023986e-06 -2.2364556029691367e-05 0.063626631020772664 5.4368691835001227e-08 -5.5556323919568202e-08 0.78125000000000000 0.062500000000000000 0.78124450742582008 0.062477635443970315 
0.81250000000000000 0.062500000000000000 0.0000000000000000 -5.5081566012567590e-06 -2.3094446547428682e-05 0.047878674552406686 4.5969555028739703e-08 -5.2769995312281623e-08 0.81250000000000000 0.062500000000000000 0.81249449184339884 0.062476905553452582 
0.84375000000000000 0.062500000000000000 0.0000000000000000 -5.5176534476586646e-06 -2.3809086554581372e-05 0.034625752869331811 3.8331884914263420e-08 -4.7871927125762012e-08 0.84375000000000000 0.062500000000000000 0.84374448234655219 0.062476190913445417 
0.87500000000000000 0.062500000000000000 0.0000000000000000 -5.5225313458489775e-06 -2.4509379649614238e-05 0.023614875209116055 3.1522045777693328e-08 -4.0739633077800471e-08 0.87500000000000000 0.062500000000000000 0.87499447746865411 0.062475490620350384 
0.90625000000000000 0.062500000000000000 0.0000000000000000 -5.5243158633975543e-06 -2.5196906402638689e-05 0.014551159836629591 2.6341232485180494e-08 -3.1429203247624760e-08 0.90625000000000000 0.062500000000000000 0.90624447568413657 0.062474803093597368 
0.93750000000000000 0.062500000000000000 0.0000000000000000 -5.5245980018486384e-06 -2.5874084495642172e-05 0.0071788857969113497 2.0197952531939432e-08 -2.0288803706972530e-08 0.93750000000000000 0.062500000000000000 0.93749447540199815 0.062474125915504365 
0.96875000000000000 0.062500000000000000 0.0000000000000000 -5.5250185365630634e-06 -2.6544347410999042e-05 0.0015327338699932414 1.9580397278821754e-08 -8.9594974169983357e-09 0.96875000000000000 0.062500000000000000 0.96874447498146343 0.062473455652589001 
1.0000000000000000 0.062500000000000000 0.0000000000000000 -5.5271494829004872e-06 -2.7212337418430852e-05 -0.0012666107359862830 0.0000000000000000 1.8462620933256389e-09 1.0000000000000000 0.062500000000000000 0.99999447285051712 0.062472787662581568 
0.031250000000000000 0.093750000000000000 0.0000000000000000 -8.3737549000694193e-08 -9.1482126601801382e-07 1.7403323226457887 2.6008959266433064e-07 8.0517515218236376e-07 0.031250000000000000 0.093750000000000000 0.031249916262450998 0.093749085178733982 
0.0000000000000000 0.093750000000000000 0.0000000000000000 0.0000000000000000 0.0000000000000000 1.7190098606959594 0.0000000000000000 9.5754034669429297e-07 0.0000000000000000 0.093750000000000000 0.0000000000000000 0.093750000000000000 
0.062500000000000000 0.093750000000000000 0.0000000000000000 -3.0132105945226475e-07 -1.9351708552232232e-06 1.6145019371916343 5.6769633260334095e-07 5.9411845536087731e-07 0.062500000000000000 0.093750000000000000 0.062499698678940556 0.093748064829144773 
0.093750000000000000 0.093750000000000000 0.0000000000000000 -6.2930889234734367e-07 -2.9950763491566833e-06 1.4211446593216959 6.6322628578717854e-07 2.5955913135964098e-07 0.093750000000000000 0.093750000000000000 0.093749370691107656 0.093747004923650845 
0.12500000000000000 0.093750000000000000 0.0000000000000000 -1.0171858322820184e-06 -4.0364292968413828e-06 1.2254292078872882 5.6265425249522183e-07 9.9237035319829118e-08 0.12500000000000000 0.093750000000000000 0.12499898281416773 0.093745963570703153 
0.15625000000000000 0.093750000000000000 0.0000000000000000 -1.4070271046030617e-06 -5.0317151646495760e-06 1.0675127831372853 4.3782966610110212e-07 6.0416784864614124e-08 0.15625000000000000 0.093750000000000000 0.15624859297289539 0.093744968284835348 
0.18750000000000000 0.093750000000000000 0.0000000000000000 -1.7798601811760109e-06 -5.9925684753258257e-06 0.94489070219087445 3.4306071247043489e-07 5.0156495919626799e-08 0.18750000000000000 0.093750000000000000 0.18749822013981879 0.093744007431524667 
0.21875000000000000 0.093750000000000000 0.0000000000000000 -2.1290915612935472e-06 -6.9308249277439093e-06 0.84661425070309970 2.8319741953916951e-07 4.8068452326691531e-08 0.21875000000000000 0.093750000000000000 0.21874787090843870 0.093743069175072261 
0.25000000000000000 0.093750000000000000 0.0000000000000000 -2.4527602946436343e-06 -7.8546457236261785e-06 0.76435044566607624 2.4280051752382010e-07 4.5137389689009863e-08 0.25000000000000000 0.093750000000000000 0.24999754723970535 0.093742145354276371 
0.28125000000000000 0.093750000000000000 0.0000000000000000 -2.7507599610724098e-06 -8.7691113008589629e-06 0.69285838603017125 2.1487693427183447e-07 4.0836352982633587e-08 0.28125000000000000 0.093750000000000000 0.28124724924003891 0.093741230888699137 
0.31250000000000000 0.093750000000000000 0.0000000000000000 -3.0237342877001366e-06 -9.6771352541546752e-06 0.62897691709775605 1.9439676284033310e-07 3.5036044162945215e-08 0.31250000000000000 0.093750000000000000 0.31249697626571232 0.093740322864745859 
0.34375000000000000 0.093750000000000000 0.0000000000000000 -3.2726217323667812e-06 -1.0580159116664328e-05 0.57078277997255211 1.7853490767104243e-07 2.8104906056226761e-08 0.34375000000000000 0.093750000000000000 0.34374672737826767 0.093739419840883340 
0.37500000000000000 0.093750000000000000 0.0000000000000000 -3.4984657126605703e-06 -1.1478629792329377e-05 0.51708302237852333 1.6558827909405011e-07 2.0373710049541158e-08 0.37500000000000000 0.093750000000000000 0.37499650153428732 0.093738521370207675 
0.40625000000000000 0.093750000000000000 0.0000000000000000 -3.7023381338751475e-06 -1.2372323507159789e-05 0.46712422045918139 1.5450648365777693e-07 1.2137121899151863e-08 0.40625000000000000 0.093750000000000000 0.40624629766186615 0.093737627676492838 
0.43750000000000000 0.093750000000000000 0.0000000000000000 -3.8853115260053638e-06 -1.3260568104001491e-05 0.42042590381564610 1.4462126482958980e-07 3.6448765194874013e-09 0.43750000000000000 0.093750000000000000 0.43749611468847399 0.093736739431895991 
0.46875000000000000 0.093750000000000000 0.0000000000000000 -4.0484516826355213e-06 -1.4142398292121263e-05 0.37668219480012732 1.3549623930980469e-07 -4.8889559247834313e-09 0.46875000000000000 0.093750000000000000 0.46874595154831739 0.093735857601707884 
0.50000000000000000 0.093750000000000000 0.0000000000000000 -4.1928184258490821e-06 -1.5016666277278617e-05 0.33570136615518159 1.2684217100884874e-07 -1.3277048065742794e-08 0.50000000000000000 0.093750000000000000 0.49999580718157416 0.093734983333722724 