# For a description of the Tecplot format see the Tecplot User's guide.
#
Variables=x,y,z,s_u,s_v,s_p,x,y,ref_u,ref_v,u,v
Zone f=fepoint, n=289, e=512, et=quadrilateral, c=black
0.00000 0.00000 0.00000 0.0000000000000000 0.0000000000000000 5.3100101894767615 0.0000000000000000 0.0000000000000000 0.0000000000000000 0.0000000000000000 0.0000000000000000 0.0000000000000000 
0.062500000000000000 0.0000000000000000 0.0000000000000000 -6.3376221277296840e-07 -2.0001479603617068e-06 2.9655593366983131 3.5572361877350917e-06 0.0000000000000000 0.062500000000000000 0.0000000000000000 0.062499366237787228 -2.0001479603617068e-06 
0.062500000000000000 0.062500000000000000 0.0000000000000000 -1.9294529513081344e-08 -1.4360489044801877e-06 1.8841640057910782 1.2042280331256537e-06 1.2725134750987572e-06 0.062500000000000000 0.062500000000000000 0.062499980705470477 0.062498563951095522 
0.0000000000000000 0.062500000000000000 0.0000000000000000 -1.6247511655866618e-25 0.0000000000000000 0.81501711171182478 9.1153709434514285e-33 1.9652924458721522e-06 0.0000000000000000 0.062500000000000000 -1.6247511655866618e-25 0.062500000000000000 
0.12500000000000000 0.0000000000000000 0.0000000000000000 -1.1641089181128436e-06 -3.7526528545469008e-06 2.5291119476314887 3.1212408127941841e-06 0.0000000000000000 0.12500000000000000 0.0000000000000000 0.12499883589108189 -3.7526528545469008e-06 
0.12500000000000000 0.062500000000000000 0.0000000000000000 -5.0696448621893356e-07 -3.2570745367671443e-06 0.25036432048934065 -1.1167901742229196e-06 -4.3588943752398352e-07 0.12500000000000000 0.062500000000000000 0.12499949303551379 0.062496742925463235 
0.18750000000000000 0.0000000000000000 0.0000000000000000 -1.6065479574732094e-06 -5.3562422345178888e-06 2.1356423927784665 2.5673881221697734e-06 0.0000000000000000 0.18750000000000000 0.0000000000000000 0.18749839345204253 -5.3562422345178888e-06 
0.18750000000000000 0.062500000000000000 0.0000000000000000 -9.4463418854170230e-07 -4.9470241696510127e-06 0.20368678765533574 -6.3337835710776207e-07 5.2701136559902212e-08 0.18750000000000000 0.062500000000000000 0.18749905536581146 0.062495052975830349 
0.25000000000000000 0.0000000000000000 0.0000000000000000 -1.9717801429662656e-06 -6.8394761640808966e-06 1.7959340411209921 2.2780064986585327e-06 0.0000000000000000 0.25000000000000000 0.0000000000000000 0.24999802821985703 -6.8394761640808966e-06 
0.25000000000000000 0.062500000000000000 0.0000000000000000 -1.3042069506110540e-06 -6.5034620032490793e-06 0.15008914204893800 -6.3066371031499008e-07 -4.9904936670892243e-08 0.25000000000000000 0.062500000000000000 0.24999869579304937 0.062493496537996747 
0.31250000000000000 0.0000000000000000 0.0000000000000000 -2.2678583186876164e-06 -8.2297865190891666e-06 1.4975260117904938 2.0168349987399282e-06 0.0000000000000000 0.31250000000000000 0.0000000000000000 0.31249773214168131 -8.2297865190891666e-06 
0.31250000000000000 0.062500000000000000 0.0000000000000000 -1.5976320261160790e-06 -7.9586848726805968e-06 0.10762724490739510 -5.5216900772477920e-07 -2.2057650845020909e-08 0.31250000000000000 0.062500000000000000 0.31249840236797383 0.062492041315127318 
0.37500000000000000 0.0000000000000000 0.0000000000000000 -2.5033315836294240e-06 -9.5414714644439036e-06 1.2333477813481448 1.8061326814458373e-06 0.0000000000000000 0.37500000000000000 0.0000000000000000 0.37499749666841636 -9.5414714644439036e-06 
0.37500000000000000 0.062500000000000000 0.0000000000000000 -1.8325815167004652e-06 -9.3271507805419766e-06 0.070955830978192649 -5.0893312067652964e-07 -3.0451245718878657e-08 0.37500000000000000 0.062500000000000000 0.37499816741848330 0.062490672849219449 
0.43750000000000000 0.0000000000000000 0.0000000000000000 -2.6858966783424241e-06 -1.0783645412338870e-05 0.99920038728899252 1.6188380248450570e-06 0.0000000000000000 0.43750000000000000 0.0000000000000000 0.43749731410332166 -1.0783645412338870e-05 
0.43750000000000000 0.062500000000000000 0.0000000000000000 -2.0164215413892527e-06 -1.0618651612515418e-05 0.040895208419546490 -4.6533051899844032e-07 -3.3190805660782105e-08 0.43750000000000000 0.062500000000000000 0.43749798357845865 0.062489381348387489 
0.50000000000000000 0.0000000000000000 0.0000000000000000 -2.8230026164952314e-06 -1.1961636051910566e-05 0.79236337497871656 1.4476551679852476e-06 0.0000000000000000 0.50000000000000000 0.0000000000000000 0.49999717699738350 -1.1961636051910566e-05 
0.50000000000000000 0.062500000000000000 0.0000000000000000 -2.1560333748584272e-06 -1.1838825147881022e-05 0.016805635208614111 -4.2629641672970678e-07 -3.8283299328736589e-08 0.50000000000000000 0.062500000000000000 0.49999784396662511 0.062488161174852119 
0.56250000000000000 0.0000000000000000 0.0000000000000000 -2.9218433703339950e-06 -1.3078753590294150e-05 0.61119289482741057 1.2853075553421331e-06 0.0000000000000000 0.56250000000000000 0.0000000000000000 0.56249707815662964 -1.3078753590294150e-05 
0.56250000000000000 0.062500000000000000 0.0000000000000000 -2.2580452114687307e-06 -1.2991226318697667e-05 -0.0015631461031470433 -3.8794189966468245e-07 -4.2558184039646134e-08 0.56250000000000000 0.062500000000000000 0.56249774195478863 0.062487008773681303 
0.62500000000000000 0.0000000000000000 0.0000000000000000 -2.9894047364031177e-06 -1.4137160738453633e-05 0.45468814062564361 1.1277131958675885e-06 0.0000000000000000 0.62500000000000000 0.0000000000000000 0.62499701059526358 -1.4137160738453633e-05 
0.62500000000000000 0.062500000000000000 0.0000000000000000 -2.3288909811133928e-06 -1.4078228341823973e-05 -0.014504499609882685 -3.4960304103870843e-07 -4.6257499685123975e-08 0.62500000000000000 0.062500000000000000 0.62499767110901894 0.062485921771658175 
0.68750000000000000 0.0000000000000000 0.0000000000000000 -3.0324028871600811e-06 -1.5138406068115102e-05 0.32226035449673951 9.7162298529153370e-07 0.0000000000000000 0.68750000000000000 0.0000000000000000 0.68749696759711287 -1.5138406068115102e-05 
0.68750000000000000 0.062500000000000000 0.0000000000000000 -2.3748203800976027e-06 -1.5101651558245208e-05 -0.022271472540827879 -3.1049590075553257e-07 -4.8569972092332999e-08 0.68750000000000000 0.062500000000000000 0.68749762517961976 0.062484898348441752 
0.75000000000000000 0.0000000000000000 0.0000000000000000 -3.0571701928981298e-06 -1.6083657781434059e-05 0.21359477837658891 8.1551404909760668e-07 0.0000000000000000 0.75000000000000000 0.0000000000000000 0.74999694282980711 -1.6083657781434059e-05 
0.75000000000000000 0.062500000000000000 0.0000000000000000 -2.4018278673255647e-06 -1.6063036013681317e-05 -0.025129534473123827 -2.7044152975073453e-07 -5.1640951771314303e-08 0.75000000000000000 0.062500000000000000 0.74999759817213263 0.062483936963986318 
0.81250000000000000 0.0000000000000000 0.0000000000000000 -3.0693989943577509e-06 -1.6973631197189552e-05 0.12848614765927102 6.5492564774051256e-07 0.0000000000000000 0.81250000000000000 0.0000000000000000 0.81249693060100581 -1.6973631197189552e-05 
0.81250000000000000 0.062500000000000000 0.0000000000000000 -2.4155221666150752e-06 -1.6963782137529324e-05 -0.023290346238745107 -2.2931490677785552e-07 -4.8765073965509253e-08 0.81250000000000000 0.062500000000000000 0.81249758447783338 0.062483036217862463 
0.87500000000000000 0.0000000000000000 0.0000000000000000 -3.0740283560648578e-06 -1.7808584099873381e-05 0.067233017922656055 4.9559134646486313e-07 0.0000000000000000 0.87500000000000000 0.0000000000000000 0.87499692597164402 -1.7808584099873381e-05 
0.87500000000000000 0.062500000000000000 0.0000000000000000 -2.4208574762846961e-06 -1.7804754990229698e-05 -0.017137473407322124 -1.8773823794187406e-07 -6.4822705235008391e-08 0.87500000000000000 0.062500000000000000 0.87499757914252374 0.062482195245009774 
0.93750000000000000 0.0000000000000000 0.0000000000000000 -3.0743863434426495e-06 -1.8586927204763788e-05 0.027176518314519432 3.0751200594062739e-07 0.0000000000000000 0.93750000000000000 0.0000000000000000 0.93749692561365661 -1.8586927204763788e-05 
0.93750000000000000 0.062500000000000000 0.0000000000000000 -2.4220048671507107e-06 -1.8586439134490464e-05 -0.0084772065292834462 -1.4554193313241890e-07 -2.3752105619087206e-08 0.93750000000000000 0.062500000000000000 0.93749757799513300 0.062481413560865506 
1.0000000000000000 0.0000000000000000 0.0000000000000000 -3.0731539824246327e-06 -1.9313361376864437e-05 0.049998978227421914 0.0000000000000000 0.0000000000000000 1.0000000000000000 0.0000000000000000 0.99999692684601760 -1.9313361376864437e-05 
1.0000000000000000 0.062500000000000000 0.0000000000000000 -2.4219897545645735e-06 -1.9312148301954034e-05 0.011883882674008167 0.0000000000000000 -1.5636456543033482e-07 1.0000000000000000 0.062500000000000000 0.99999757801024547 0.062480687851698045 
0.062500000000000000 0.12500000000000000 0.0000000000000000 -5.9293207163257231e-11 -1.4040724683618119e-06 0.40466333006202121 -3.8404082668989327e-07 -9.2204494378391078e-07 0.062500000000000000 0.12500000000000000 0.062499999940706784 0.12499859592753164 
0.0000000000000000 0.12500000000000000 0.0000000000000000 4.9271275634194310e-25 0.0000000000000000 0.58239078254374099 1.6238056938028929e-22 2.7167579177626711e-06 0.0000000000000000 0.12500000000000000 4.9271275634194310e-25 0.12500000000000000 
0.12500000000000000 0.12500000000000000 0.0000000000000000 -1.9760820446101899e-08 -2.8176067197103488e-06 1.5931893182715686 1.4322511986292267e-06 1.3207831376013723e-06 0.12500000000000000 0.12500000000000000 0.12499998023917956 0.12499718239328030 
0.18750000000000000 0.12500000000000000 0.0000000000000000 -4.0360302549079879e-07 -4.5645202281946763e-06 0.29016810327328013 3.4111365772098226e-08 -4.2207461582281292e-07 0.18750000000000000 0.12500000000000000 0.18749959639697453 0.12499543547977181 
0.25000000000000000 0.12500000000000000 0.0000000000000000 -7.3498623394119261e-07 -6.1905727520981524e-06 0.26939374680574985 2.8841160745731995e-07 -1.8648512392204012e-08 0.25000000000000000 0.12500000000000000 0.24999926501376610 0.12499380942724790 
0.31250000000000000 0.12500000000000000 0.0000000000000000 -1.0053813858962164e-06 -7.7049722840116210e-06 0.21720389061140208 1.9140256818506241e-07 -8.7690126274797056e-08 0.31250000000000000 0.12500000000000000 0.31249899461861408 0.12499229502771599 
0.37500000000000000 0.12500000000000000 0.0000000000000000 -1.2226738166609164e-06 -9.1259306995015822e-06 0.17628680938058161 1.9276491691003690e-07 -6.3858748813300246e-08 0.37500000000000000 0.12500000000000000 0.37499877732618336 0.12499087406930050 
0.43750000000000000 0.12500000000000000 0.0000000000000000 -1.3930070886290585e-06 -1.0463266912264424e-05 0.13995910371102779 1.7305290152723020e-07 -6.5065115046481569e-08 0.43750000000000000 0.12500000000000000 0.43749860699291138 0.12498953673308776 
0.50000000000000000 0.12500000000000000 0.0000000000000000 -1.5224014817460505e-06 -1.1722981570000003e-05 0.10888376362340679 1.6058493082414859e-07 -6.2363792737456135e-08 0.50000000000000000 0.12500000000000000 0.49999847759851823 0.12498827701843000 
0.56250000000000000 0.12500000000000000 0.0000000000000000 -1.6166468574835329e-06 -1.2908788440065318e-05 0.082510629222586632 1.4786292337016363e-07 -6.1406428749036944e-08 0.56250000000000000 0.12500000000000000 0.56249838335314262 0.12498709121155993 
0.62500000000000000 0.12500000000000000 0.0000000000000000 -1.6814420281413904e-06 -1.4023193531029709e-05 0.060653624749158440 1.3626934593193013e-07 -6.0197820595647071e-08 0.62500000000000000 0.12500000000000000 0.62499831855797183 0.12498597680646896 
0.68750000000000000 0.12500000000000000 0.0000000000000000 -1.7224014264641816e-06 -1.5068162647096404e-05 0.043146385497867236 1.2518258631221354e-07 -5.8358708159676384e-08 0.68750000000000000 0.12500000000000000 0.68749827759857352 0.12498493183735292 
0.75000000000000000 0.12500000000000000 0.0000000000000000 -1.7450239652868952e-06 -1.6045469196776276e-05 0.029874250874295221 1.1457416967636570e-07 -5.7898118253592358e-08 0.75000000000000000 0.12500000000000000 0.74999825497603467 0.12498395453080323 
0.81250000000000000 0.12500000000000000 0.0000000000000000 -1.7545861791624201e-06 -1.6956903173897367e-05 0.020836306944017502 1.0397113463442882e-07 -5.1017110213443549e-08 0.81250000000000000 0.12500000000000000 0.81249824541382087 0.12498304309682610 
0.87500000000000000 0.12500000000000000 0.0000000000000000 -1.7559816762967495e-06 -1.7803946002897893e-05 0.015938429534320137 9.3915000548880120e-08 -6.8094152886757293e-08 0.87500000000000000 0.12500000000000000 0.87499824401832360 0.12498219605399709 
0.93750000000000000 0.12500000000000000 0.0000000000000000 -1.7534677247580253e-06 -1.8588135741355631e-05 0.013769741830414980 8.6588480860650976e-08 -3.2034617936715573e-09 0.93750000000000000 0.12500000000000000 0.93749824653227520 0.12498141186425864 
1.0000000000000000 0.12500000000000000 0.0000000000000000 -1.7497608462156656e-06 -1.9313511098427963e-05 0.047060713701140434 0.0000000000000000 -1.8303209913015718e-07 1.0000000000000000 0.12500000000000000 0.99999825023915390 0.12498068648890155 
0.062500000000000000 0.18750000000000000 0.0000000000000000 5.3925348650527281e-09 -1.4066336539858797e-06 0.36956180398164723 1.0801762109390517e-07 -6.3695675951664717e-07 0.062500000000000000 0.18750000000000000 0.062500005392534863 0.18749859336634600 
0.0000000000000000 0.18750000000000000 0.0000000000000000 1.5160754384594907e-24 0.0000000000000000 0.17938575144573302 -7.7942673306714029e-22 2.4844880796280628e-06 0.0000000000000000 0.18750000000000000 1.5160754384594907e-24 0.18750000000000000 
0.12500000000000000 0.18750000000000000 0.0000000000000000 1.2900109785835842e-08 -2.8039754247476552e-06 0.33589566415580313 -3.1720231195154630e-07 -2.6373165126178303e-09 0.12500000000000000 0.18750000000000000 0.12500001290010979 0.18749719602457526 
0.18750000000000000 0.18750000000000000 0.0000000000000000 1.3622886586624064e-08 -4.2287323845749672e-06 1.2914180396802815 9.3108164175155155e-07 8.9175029502509111e-07 0.18750000000000000 0.18750000000000000 0.18750001362288660 0.18749577126761544 
0.25000000000000000 0.18750000000000000 0.0000000000000000 -2.7044066261880129e-07 -5.9074186681043646e-06 0.25407387442482188 -1.9509596391732476e-07 -3.0335738523052190e-07 0.25000000000000000 0.18750000000000000 0.24999972955933739 0.18749409258133190 
0.31250000000000000 0.18750000000000000 0.0000000000000000 -5.0867851857950161e-07 -7.4763673049057494e-06 0.24374417510514870 4.2482645703746114e-08 -6.0528973103523176e-10 0.31250000000000000 0.18750000000000000 0.31249949132148142 0.18749252363269509 
0.37500000000000000 0.18750000000000000 0.0000000000000000 -6.9892103661589667e-07 -8.9445949226850522e-06 0.19494301190947808 -1.6951526229171265e-08 -6.4807927392493515e-08 0.37500000000000000 0.18750000000000000 0.37499930107896340 0.18749105540507729 
0.43750000000000000 0.18750000000000000 0.0000000000000000 -8.4707697364380604e-07 -1.0323746820578241e-05 0.15864252617772609 -2.2520624843544720e-09 -4.7895247409374725e-08 0.43750000000000000 0.18750000000000000 0.43749915292302638 0.18748967625317944 
0.50000000000000000 0.18750000000000000 0.0000000000000000 -9.5815082701209481e-07 -1.1619792287200378e-05 0.12675343739326128 -6.2731587891399221e-09 -5.2120434478670705e-08 0.50000000000000000 0.18750000000000000 0.49999904184917293 0.18748838020771277 
0.56250000000000000 0.18750000000000000 0.0000000000000000 -1.0371589603966143e-06 -1.2836567892684489e-05 0.099954672320690260 -5.1284285541990407e-09 -5.1815405807042376e-08 0.56250000000000000 0.18750000000000000 0.56249896284103962 0.18748716343210733 
0.62500000000000000 0.18750000000000000 0.0000000000000000 -1.0891026787284312e-06 -1.3976605454610270e-05 0.077489814973341217 -4.7412046066089894e-09 -5.2668824921757714e-08 0.62500000000000000 0.18750000000000000 0.62499891089732129 0.18748602339454543 
0.68750000000000000 0.18750000000000000 0.0000000000000000 -1.1190129141152130e-06 -1.5041905984618312e-05 0.059147566008115438 -3.5209522164872980e-09 -5.2379589823290489e-08 0.68750000000000000 0.18750000000000000 0.68749888098708578 0.18748495809401541 
0.75000000000000000 0.18750000000000000 0.0000000000000000 -1.1319275944110056e-06 -1.6034327234357259e-05 0.044737947278667568 -1.9171137913157031e-09 -5.3422439814864407e-08 0.75000000000000000 0.18750000000000000 0.74999886807240557 0.18748396567276562 
0.81250000000000000 0.18750000000000000 0.0000000000000000 -1.1328233738342637e-06 -1.6955870331054248e-05 0.034406629094705064 5.5750259198387394e-11 -4.7378389908994430e-08 0.81250000000000000 0.18750000000000000 0.81249886717662612 0.18748304412966896 
0.87500000000000000 0.18750000000000000 0.0000000000000000 -1.1264836266934909e-06 -1.7808373969458875e-05 0.027982087600495070 2.5114544001613827e-09 -6.7263639317789623e-08 0.87500000000000000 0.18750000000000000 0.87499887351637329 0.18748219162603055 
0.93750000000000000 0.18750000000000000 0.0000000000000000 -1.1172894663922713e-06 -1.8594242973716917e-05 0.023923567288232379 3.8434192060589265e-09 7.4801954449360467e-09 0.93750000000000000 0.18750000000000000 0.93749888271053361 0.18748140575702629 
1.0000000000000000 0.18750000000000000 0.0000000000000000 -1.1087158315671894e-06 -1.9317386358402931e-05 0.074388202918909643 0.0000000000000000 -2.3742124747120497e-07 1.0000000000000000 0.18750000000000000 0.99999889128416841 0.18748068261364159 
0.062500000000000000 0.25000000000000000 0.0000000000000000 9.6349779086107975e-09 -1.4211185751272771e-06 0.27780484776959241 -4.6328303169247159e-08 -6.8211279563955968e-07 0.062500000000000000 0.25000000000000000 0.062500009634977913 0.24999857888142488 
0.0000000000000000 0.25000000000000000 0.0000000000000000 -1.4146896680863700e-24 0.0000000000000000 -0.18389374236373027 1.1691400996293677e-21 2.2291160296738664e-06 0.0000000000000000 0.25000000000000000 -1.4146896680863700e-24 0.25000000000000000 
0.12500000000000000 0.25000000000000000 0.0000000000000000 3.3652223042398371e-08 -2.8194037878667217e-06 0.31808252406276649 6.9630981609126255e-08 3.0789514186624307e-07 0.12500000000000000 0.25000000000000000 0.12500003365222304 0.24999718059621215 
0.18750000000000000 0.25000000000000000 0.0000000000000000 6.1121063248969240e-08 -4.2397542598485871e-06 0.29834218791533762 -2.4143097651773100e-07 -2.1175916936760771e-07 0.18750000000000000 0.25000000000000000 0.18750006112106324 0.24999576024574013 
0.25000000000000000 0.25000000000000000 0.0000000000000000 9.0071489416129076e-08 -5.6677259802384988e-06 1.0425942464482472 7.9156013828312595e-07 7.5108966057222705e-07 0.25000000000000000 0.25000000000000000 0.25000009007148943 0.24999433227401976 
0.31250000000000000 0.25000000000000000 0.0000000000000000 -1.0284602392714261e-07 -7.2817913334091340e-06 0.22529610956354759 -1.1114251331041571e-07 -2.6534762783875182e-07 0.31250000000000000 0.25000000000000000 0.31249989715397608 0.24999271820866656 
0.37500000000000000 0.25000000000000000 0.0000000000000000 -2.5668049245189158e-07 -8.7924055749408613e-06 0.22375765384023172 8.4814953952392130e-08 -2.1591547991399847e-09 0.37500000000000000 0.25000000000000000 0.37499974331950753 0.24999120759442506 
0.43750000000000000 0.25000000000000000 0.0000000000000000 -3.7376589582153326e-07 -1.0208594278084155e-05 0.18103302138322733 2.8707765887159538e-08 -6.1743204172984044e-08 0.43750000000000000 0.25000000000000000 0.43749962623410416 0.24998979140572189 
0.50000000000000000 0.25000000000000000 0.0000000000000000 -4.5833142146224231e-07 -1.1537222786383254e-05 0.15034334564635285 3.8547171233109184e-08 -4.8144628241706945e-08 0.50000000000000000 0.25000000000000000 0.49999954166857846 0.24998846277721362 
0.56250000000000000 0.25000000000000000 0.0000000000000000 -5.1452363716943358e-07 -1.2781957830633266e-05 0.12343510084417757 3.2296342606645728e-08 -5.2658310285159743e-08 0.56250000000000000 0.25000000000000000 0.56249948547636286 0.24998721804216936 
0.62500000000000000 0.25000000000000000 0.0000000000000000 -5.4662402853593618e-07 -1.3945265585356507e-05 0.10093197932987390 3.0888379365607448e-08 -5.2770711472484316e-08 0.62500000000000000 0.25000000000000000 0.62499945337597140 0.24998605473441463 
0.68750000000000000 0.25000000000000000 0.0000000000000000 -5.5907082483413392e-07 -1.5029057873182053e-05 0.082118609776257845 2.8959463207235217e-08 -5.3133846267384699e-08 0.68750000000000000 0.25000000000000000 0.68749944092917514 0.24998497094212682 
0.75000000000000000 0.25000000000000000 0.0000000000000000 -5.5643981610704886e-07 -1.6035141507119663e-05 0.066778099247095143 2.7658297461904037e-08 -5.4341945094851924e-08 0.75000000000000000 0.25000000000000000 0.74999944356018389 0.24998396485849292 
0.81250000000000000 0.25000000000000000 0.0000000000000000 -5.4339534021755289e-07 -1.6965550555077264e-05 0.055064266696685293 2.6748612527482775e-08 -4.8333402003754469e-08 0.81250000000000000 0.25000000000000000 0.81249945660465983 0.24998303444944492 
0.87500000000000000 0.25000000000000000 0.0000000000000000 -5.2459774607389198e-07 -1.7822293554329441e-05 0.046722076754135346 2.5797532634119023e-08 -6.9457329429707199e-08 0.87500000000000000 0.25000000000000000 0.87499947540225398 0.24998217770644568 
0.93750000000000000 0.25000000000000000 0.0000000000000000 -5.0452597196401601e-07 -1.8608292953008577e-05 0.040350331328967280 2.5757774476842077e-08 1.5249506069150002e-08 0.93750000000000000 0.25000000000000000 0.93749949547402800 0.24998139170704700 
1.0000000000000000 0.25000000000000000 0.0000000000000000 -4.8693137079041697e-07 -1.9327353888995172e-05 0.11321372740473014 0.0000000000000000 -2.8015578070085071e-07 1.0000000000000000 0.25000000000000000 0.99999951306862922 0.24998067264611101 
0.062500000000000000 0.31250000000000000 0.0000000000000000 1.2557862300168627e-08 -1.4452533423150820e-06 0.21857184443617481 -4.0864991277189377e-08 -6.1845379588206791e-07 0.062500000000000000 0.31250000000000000 0.062500012557862306 0.31249855474665766 
0.0000000000000000 0.31250000000000000 0.0000000000000000 -2.0837478598691085e-24 0.0000000000000000 -0.51086507114040003 1.4289490106461563e-21 2.1348810151891128e-06 0.0000000000000000 0.31250000000000000 -2.0837478598691085e-24 0.31250000000000000 
0.12500000000000000 0.31250000000000000 0.0000000000000000 5.1128883635188022e-08 -2.8568395205401149e-06 0.23989301317023926 -2.8977291061085808e-08 1.9575156120580112e-07 0.12500000000000000 0.31250000000000000 0.12500005112888360 0.31249714316047944 
0.18750000000000000 0.31250000000000000 0.0000000000000000 1.0396561297299993e-07 -4.2814466319952727e-06 0.30092411450789847 5.9488945500546712e-08 3.2516654367064839e-08 0.18750000000000000 0.31250000000000000 0.18750010396561298 0.31249571855336805 
0.25000000000000000 0.31250000000000000 0.0000000000000000 1.6152491192093221e-07 -5.7109748023539987e-06 0.26851135703694157 -2.1061878079119321e-07 -1.2574350031268968e-07 0.25000000000000000 0.31250000000000000 0.25000016152491195 0.31249428902519766 
0.31250000000000000 0.31250000000000000 0.0000000000000000 2.2440982065940244e-07 -7.1293561322234087e-06 0.85223381815759891 6.1056391371683328e-07 5.7359072413570698e-07 0.31250000000000000 0.31250000000000000 0.31250022440982067 0.31249287064386783 
0.37500000000000000 0.31250000000000000 0.0000000000000000 1.1387555551006103e-07 -8.6777290270334573e-06 0.20879789129231821 -1.0498838329610746e-07 -2.1816637177083936e-07 0.37500000000000000 0.31250000000000000 0.37500011387555549 0.31249132227097304 
0.43750000000000000 0.31250000000000000 0.0000000000000000 3.5602895016547941e-08 -1.0125875565092848e-05 0.21310481281539362 5.9518183866217727e-08 -6.1600370199360715e-09 0.43750000000000000 0.31250000000000000 0.43750003560289502 0.31248987412443491 
0.50000000000000000 0.31250000000000000 0.0000000000000000 -1.5422045598704220e-08 -1.1482669034620626e-05 0.17616559030790238 1.3278786848578100e-08 -5.8169160123109993e-08 0.50000000000000000 0.31250000000000000 0.49999998457795441 0.31248851733096533 
0.56250000000000000 0.31250000000000000 0.0000000000000000 -4.2237011506406049e-08 -1.2751802638269811e-05 0.15039145480076535 2.2501846321501161e-08 -4.7619005408434969e-08 0.56250000000000000 0.31250000000000000 0.56249995776298845 0.31248724819736173 
0.62500000000000000 0.31250000000000000 0.0000000000000000 -4.8407188386938638e-08 -1.3935494581576616e-05 0.12765353311344860 1.8157596299653644e-08 -5.2178777506526601e-08 0.62500000000000000 0.31250000000000000 0.62499995159281163 0.31248606450541844 
0.68750000000000000 0.31250000000000000 0.0000000000000000 -3.7726600208589383e-08 -1.5035432315338492e-05 0.10862726204026796 1.8095377461784610e-08 -5.2114259604988828e-08 0.68750000000000000 0.31250000000000000 0.68749996227339982 0.31248496456768465 
0.75000000000000000 0.31250000000000000 0.0000000000000000 -1.4287453441951672e-08 -1.6053235516438431e-05 0.092606206492925017 1.7447383798700103e-08 -5.3855948648651762e-08 0.75000000000000000 0.31250000000000000 0.74999998571254656 0.31248394676448354 
0.81250000000000000 0.31250000000000000 0.0000000000000000 1.7585984943703803e-08 -1.6990804798644663e-05 0.079792342955761250 1.7708005397714481e-08 -4.8446568877664846e-08 0.81250000000000000 0.31250000000000000 0.81250001758598500 0.31248300919520133 
0.87500000000000000 0.31250000000000000 0.0000000000000000 5.3394494139546104e-08 -1.7850132597318349e-05 0.069687703523836630 1.7672031319189329e-08 -6.8923481378807638e-08 0.87500000000000000 0.31250000000000000 0.87500005339449416 0.31248214986740269 
0.93750000000000000 0.31250000000000000 0.0000000000000000 8.8619548345903027e-08 -1.8634348496580628e-05 0.061107827534420532 1.8106822689765092e-08 1.6181837290211930e-08 0.93750000000000000 0.31250000000000000 0.93750008861954826 0.31248136565150336 
1.0000000000000000 0.31250000000000000 0.0000000000000000 1.1913945852716384e-07 -1.9346953266874309e-05 0.15978037706696188 0.0000000000000000 -2.9528078010534946e-07 1.0000000000000000 0.31250000000000000 1.0000001191394585 0.31248065304673311 
0.062500000000000000 0.37500000000000000 0.0000000000000000 1.5891214903684567e-08 -1.4777373470323013e-06 0.16933728373329973 -6.8914630529906591e-08 -6.2904351569951974e-07 0.062500000000000000 0.37500000000000000 0.062500015891214900 0.37499852226265290 
0.0000000000000000 0.37500000000000000 0.0000000000000000 4.5202730845397941e-25 0.0000000000000000 -0.82863709869433366 -7.7942673305237194e-22 2.1856469473275642e-06 0.0000000000000000 0.37500000000000000 4.5202730845397941e-25 0.37500000000000000 
0.12500000000000000 0.37500000000000000 0.0000000000000000 6.7689350133293622e-08 -2.9130932211222391e-06 0.18611258421864921 -1.3559478603094795e-08 1.9939281439541121e-07 0.12500000000000000 0.37500000000000000 0.12500006768935013 0.37499708690677885 
0.18750000000000000 0.37500000000000000 0.0000000000000000 1.4278772585027282e-07 -4.3518972095840192e-06 0.23832160419082715 -2.9320191908699727e-08 -4.1913869862903025e-08 0.18750000000000000 0.37500000000000000 0.18750014278772584 0.37499564810279035 
0.25000000000000000 0.37500000000000000 0.0000000000000000 2.3139871585796226e-07 -5.7856989204777434e-06 0.28219156834345888 5.1004889882543030e-08 8.0274398656344227e-08 0.25000000000000000 0.37500000000000000 0.25000023139871580 0.37499421430107954 
0.31250000000000000 0.37500000000000000 0.0000000000000000 3.2421358248865573e-07 -7.2087233555485676e-06 0.24955237367892635 -1.7067704728553788e-07 -1.2720451275685561e-07 0.31250000000000000 0.37500000000000000 0.31250032421358248 0.37499279127664448 
0.37500000000000000 0.37500000000000000 0.0000000000000000 4.2387277356058096e-07 -8.6038875334415603e-06 0.70596897807432013 4.8438756051397213e-07 4.4775354581711158e-07 0.37500000000000000 0.37500000000000000 0.37500042387277355 0.37499139611246651 
0.43750000000000000 0.37500000000000000 0.0000000000000000 3.8745387179126949e-07 -1.0082597362349105e-05 0.20153481684514488 -8.3548251186875782e-08 -1.8586202082008363e-07 0.43750000000000000 0.37500000000000000 0.43750038745387171 0.37498991740263765 
0.50000000000000000 0.37500000000000000 0.0000000000000000 3.7666451054841952e-07 -1.1462525199445746e-05 0.20937691469168626 5.3109848895483525e-08 -1.1099586999197303e-08 0.50000000000000000 0.37500000000000000 0.50000037666451058 0.37498853747480054 
0.56250000000000000 0.37500000000000000 0.0000000000000000 3.8499724071926005e-07 -1.2752058345387140e-05 0.17809354664820490 1.3896478884075550e-08 -5.6854665490572668e-08 0.56250000000000000 0.37500000000000000 0.56250038499724075 0.37498724794165467 
0.62500000000000000 0.37500000000000000 0.0000000000000000 4.1021211734052066e-07 -1.3952833341856766e-05 0.15667624753633133 2.1873345376244525e-08 -4.8431512408450911e-08 0.62500000000000000 0.37500000000000000 0.62500041021211750 0.37498604716665812 
0.68750000000000000 0.37500000000000000 0.0000000000000000 4.4909540780871030e-07 -1.5066213918700407e-05 0.13757151862462924 1.8413002332916901e-08 -5.2445799117849703e-08 0.68750000000000000 0.37500000000000000 0.68750044909540786 0.37498493378608128 
0.75000000000000000 0.37500000000000000 0.0000000000000000 4.9812257613329608e-07 -1.6093468639905050e-05 0.12137163624501394 1.8537155721782750e-08 -5.3585690859484578e-08 0.75000000000000000 0.37500000000000000 0.75000049812257619 0.37498390653136010 
0.81250000000000000 0.37500000000000000 0.0000000000000000 5.5335031335488884e-07 -1.7036209611633363e-05 0.10789935032485243 1.8765499025389290e-08 -4.9466851528337374e-08 0.81250000000000000 0.37500000000000000 0.81250055335031324 0.37498296379038837 
0.87500000000000000 0.37500000000000000 0.0000000000000000 6.1049917024641043e-07 -1.7896236420031877e-05 0.096460064683221006 1.8660904713763447e-08 -6.8141246865332916e-08 0.87500000000000000 0.37500000000000000 0.87500061049917022 0.37498210376358004 