# For a description of the Tecplot format see the Tecplot User's guide.
#
Variables=x,y,z,s_u,s_v,s_p,x,y,ref_u,ref_v,u,v
Zone f=fepoint, n=289, e=512, et=quadrilateral, c=black
0.00000 0.00000 0.00000 0.0000000000000000 0.0000000000000000 1.8171327515324682 0.0000000000000000 0.0000000000000000 0.0000000000000000 0.0000000000000000 0.0000000000000000 0.0000000000000000 
0.062500000000000000 0.0000000000000000 0.0000000000000000 -1.5753612569538720e-06 -3.2335345517303556e-06 1.4837631532275968 1.2192438873711020e-06 0.0000000000000000 0.062500000000000000 0.0000000000000000 0.062498424638743048 -3.2335345517303556e-06 
0.062500000000000000 0.062500000000000000 0.0000000000000000 -3.8553795055846102e-07 -2.0517319966592718e-06 1.5211755853465252 7.0167770033271146e-07 3.3603946309170190e-07 0.062500000000000000 0.062500000000000000 0.062499614462049442 0.062497948268003346 
0.0000000000000000 0.062500000000000000 0.0000000000000000 0.0000000000000000 0.0000000000000000 1.5895921359188681 0.0000000000000000 9.5617420954035640e-07 0.0000000000000000 0.062500000000000000 0.0000000000000000 0.062500000000000000 
0.12500000000000000 0.0000000000000000 0.0000000000000000 -2.6364917952041151e-06 -5.1427369748836006e-06 1.0947342003626723 4.4370825209373744e-07 0.0000000000000000 0.12500000000000000 0.0000000000000000 0.12499736350820480 -5.1427369748836006e-06 
0.12500000000000000 0.062500000000000000 0.0000000000000000 -1.3264230710900329e-06 -4.2089637408791576e-06 1.1722082272518934 4.5336943478344539e-07 -1.4637006592122743e-07 0.12500000000000000 0.062500000000000000 0.12499867357692891 0.062495791036259123 
0.18750000000000000 0.0000000000000000 0.0000000000000000 -3.4806682695253442e-06 -6.8098099093941141e-06 0.85536817706551460 3.1638672863428287e-07 0.0000000000000000 0.18750000000000000 0.0000000000000000 0.18749651933173048 -6.8098099093941141e-06 
0.18750000000000000 0.062500000000000000 0.0000000000000000 -2.1262978047808652e-06 -6.0509346706458598e-06 0.90737692585932006 3.4866822114356755e-07 -4.1831322002723697e-08 0.18750000000000000 0.062500000000000000 0.18749787370219526 0.062493949065329353 
0.25000000000000000 0.0000000000000000 0.0000000000000000 -4.1776458492294479e-06 -8.4106648944386374e-06 0.68947097701278670 2.3480345321471233e-07 0.0000000000000000 0.25000000000000000 0.0000000000000000 0.24999582235415077 -8.4106648944386374e-06 
0.25000000000000000 0.062500000000000000 0.0000000000000000 -2.7982301823921163e-06 -7.7850666368297441e-06 0.72572233072797809 2.4066785044366546e-07 -2.9068432066635561e-08 0.25000000000000000 0.062500000000000000 0.24999720176981757 0.062492214933363162 
0.31250000000000000 0.0000000000000000 0.0000000000000000 -4.7538423436047037e-06 -9.9916937800275509e-06 0.56056681910391182 1.9308216662135955e-07 0.0000000000000000 0.31250000000000000 0.0000000000000000 0.31249524615765639 -9.9916937800275509e-06 
0.31250000000000000 0.062500000000000000 0.0000000000000000 -3.3580435265541806e-06 -9.4772075581504536e-06 0.58983554079769407 1.9271163666748220e-07 -2.0831026691483722e-08 0.31250000000000000 0.062500000000000000 0.31249664195647342 0.062490522792441848 
0.37500000000000000 0.0000000000000000 0.0000000000000000 -5.2232649285041509e-06 -1.1564085807503455e-05 0.45295571835703696 1.6714899351383571e-07 0.0000000000000000 0.37500000000000000 0.0000000000000000 0.37499477673507148 -1.1564085807503455e-05 
0.37500000000000000 0.062500000000000000 0.0000000000000000 -3.8182115046858497e-06 -1.1146736629148485e-05 0.47979940405276533 1.6142295383940856e-07 -2.3813305686028181e-08 0.37500000000000000 0.062500000000000000 0.37499618178849531 0.062488853263370843 
0.43750000000000000 0.0000000000000000 0.0000000000000000 -5.5961248555909484e-06 -1.3126277436418704e-05 0.35998280681617018 1.4703037305073949e-07 0.0000000000000000 0.43750000000000000 0.0000000000000000 0.43749440387514443 -1.3126277436418704e-05 
0.43750000000000000 0.062500000000000000 0.0000000000000000 -4.1892222080019318e-06 -1.2795362614112514e-05 0.38639736553154735 1.3909439670482564e-07 -3.0866019608721143e-08 0.43750000000000000 0.062500000000000000 0.43749581077779193 0.062487204637385885 
0.50000000000000000 0.0000000000000000 0.0000000000000000 -5.8817588517517334e-06 -1.4671675856880000e-05 0.27894762765998099 1.2895698063198437e-07 0.0000000000000000 0.50000000000000000 0.0000000000000000 0.49999411824114826 -1.4671675856880000e-05 
0.50000000000000000 0.062500000000000000 0.0000000000000000 -4.4805865825596420e-06 -1.4417639448877942e-05 0.30555726040876441 1.2062098756806207e-07 -3.9135675866710654e-08 0.50000000000000000 0.062500000000000000 0.49999551941341741 0.062485582360551122 
0.56250000000000000 0.0000000000000000 0.0000000000000000 -6.0897273161103759e-06 -1.6191984312492243e-05 0.20887300022992897 1.1123028494175332e-07 0.0000000000000000 0.56250000000000000 0.0000000000000000 0.56249391027268392 -1.6191984312492243e-05 
0.56250000000000000 0.062500000000000000 0.0000000000000000 -4.7014435135656225e-06 -1.6005482565590091e-05 0.23554718132357619 1.0373968217011436e-07 -4.6763997487822742e-08 0.56250000000000000 0.062500000000000000 0.56249529855648639 0.062483994517434409 
0.62500000000000000 0.0000000000000000 0.0000000000000000 -6.2302675865006569e-06 -1.7678926328335929e-05 0.14950614335170229 9.3128561379415196e-08 0.0000000000000000 0.62500000000000000 0.0000000000000000 0.62499376973241350 -1.7678926328335929e-05 
0.62500000000000000 0.062500000000000000 0.0000000000000000 -4.8609099225937359e-06 -1.7550404833030644e-05 0.17565732121231162 8.7514780638219946e-08 -5.2503798701864927e-08 0.62500000000000000 0.062500000000000000 0.62499513909007742 0.062482449595166967 
0.68750000000000000 0.0000000000000000 0.0000000000000000 -6.3145195818323353e-06 -1.9125356611423450e-05 0.10083752437205466 7.4606856887215404e-08 0.0000000000000000 0.68750000000000000 0.0000000000000000 0.68749368548041812 -1.9125356611423450e-05 
0.68750000000000000 0.062500000000000000 0.0000000000000000 -4.9682919337607396e-06 -1.9044845647131279e-05 0.12556030100931767 7.1756090601437339e-08 -5.5347828807373136e-08 0.68750000000000000 0.062500000000000000 0.68749503170806625 0.062480955154352869 
0.75000000000000000 0.0000000000000000 0.0000000000000000 -6.3546661368029630e-06 -2.0526220906758587e-05 0.062827394297963426 5.5381937612953694e-08 0.0000000000000000 0.75000000000000000 0.0000000000000000 0.74999364533386315 -2.0526220906758587e-05 
0.75000000000000000 0.062500000000000000 0.0000000000000000 -5.0332306446213437e-06 -2.0483223888547259e-05 0.084972757645890448 5.6406700349892291e-08 -5.4400850506589287e-08 0.75000000000000000 0.062500000000000000 0.74999496676935540 0.062479516776111459 
0.81250000000000000 0.0000000000000000 0.0000000000000000 -6.3639882339297241e-06 -2.1879651967065399e-05 0.035218938747979177 3.7338066441361560e-08 0.0000000000000000 0.81250000000000000 0.0000000000000000 0.81249363601176616 -2.1879651967065399e-05 
0.81250000000000000 0.062500000000000000 0.0000000000000000 -5.0658266937499469e-06 -2.1863086724896870e-05 0.053472914919439979 4.2727455539987579e-08 -4.8767609113725484e-08 0.81250000000000000 0.062500000000000000 0.81249493417330620 0.062478136913275105 
0.87500000000000000 0.0000000000000000 0.0000000000000000 -6.3566801081302041e-06 -2.3188378868657786e-05 0.017364237053831649 1.7753033948475288e-08 0.0000000000000000 0.87500000000000000 0.0000000000000000 0.87499364331989182 -2.3188378868657786e-05 
0.87500000000000000 0.062500000000000000 0.0000000000000000 -5.0767548622999371e-06 -2.3186625441743092e-05 0.030444197667848533 2.8335883676801988e-08 -3.8029281549343492e-08 0.87500000000000000 0.062500000000000000 0.87499492324513783 0.062476813374558259 
0.93750000000000000 0.0000000000000000 0.0000000000000000 -6.3469101237163914e-06 -2.4461255971642111e-05 0.0079881560986667498 6.5108728768009517e-09 0.0000000000000000 0.93750000000000000 0.0000000000000000 0.93749365308987631 -2.4461255971642111e-05 
0.93750000000000000 0.062500000000000000 0.0000000000000000 -5.0773064192935835e-06 -2.4462736832276638e-05 0.015201186979788778 2.3102099455686470e-08 -2.2892576305026678e-08 0.93750000000000000 0.062500000000000000 0.93749492269358081 0.062475537263167728 
1.0000000000000000 0.0000000000000000 0.0000000000000000 -6.3445452871363059e-06 -2.5711668709843777e-05 0.0046716675740976028 0.0000000000000000 0.0000000000000000 1.0000000000000000 0.0000000000000000 0.99999365545471286 -2.5711668709843777e-05 
1.0000000000000000 0.062500000000000000 0.0000000000000000 -5.0788358759044417e-06 -2.5709339098480656e-05 0.0080028712460133156 0.0000000000000000 -6.6525832438057767e-09 1.0000000000000000 0.062500000000000000 0.99999492116412414 0.062474290660901523 
0.062500000000000000 0.12500000000000000 0.0000000000000000 -1.7520986718065171e-07 -1.6090400170195285e-06 1.2658872176104821 8.6533445766535261e-08 4.3790294821844431e-07 0.062500000000000000 0.12500000000000000 0.062499824790132823 0.12499839095998298 
0.0000000000000000 0.12500000000000000 0.0000000000000000 0.0000000000000000 0.0000000000000000 1.2315012663267828 0.0000000000000000 5.6834150484204966e-07 0.0000000000000000 0.12500000000000000 0.0000000000000000 0.12500000000000000 
0.12500000000000000 0.12500000000000000 0.0000000000000000 -6.1808300427559226e-07 -3.4544536253701957e-06 1.1074659419621409 3.6754944664051682e-07 2.5348104014127004e-07 0.12500000000000000 0.12500000000000000 0.12499938191699571 0.12499654554637463 
0.18750000000000000 0.12500000000000000 0.0000000000000000 -1.2254906801578808e-06 -5.3697836341761205e-06 0.89067089099475683 3.3361276561676313e-07 9.5006457446172991e-08 0.18750000000000000 0.12500000000000000 0.18749877450931984 0.12499463021636582 
0.25000000000000000 0.12500000000000000 0.0000000000000000 -1.7881381331183049e-06 -7.2045929847599279e-06 0.71595159365164041 2.3295992002337116e-07 5.2073617415317414e-08 0.25000000000000000 0.12500000000000000 0.24999821186186688 0.12499279540701524 
0.31250000000000000 0.12500000000000000 0.0000000000000000 -2.2760930392134641e-06 -8.9925089375605584e-06 0.58393760789802063 1.8448332781647776e-07 3.6858440056702794e-08 0.31250000000000000 0.12500000000000000 0.31249772390696079 0.12499100749106244 
0.37500000000000000 0.12500000000000000 0.0000000000000000 -2.6858177045696174e-06 -1.0749150352693518e-05 0.47937092578654511 1.5020022968368939e-07 2.0848187168415206e-08 0.37500000000000000 0.12500000000000000 0.37499731418229537 0.12498925084964731 
0.43750000000000000 0.12500000000000000 0.0000000000000000 -3.0208979060496865e-06 -1.2476227592103552e-05 0.39246242261652525 1.2778695071936799e-07 5.9922481516916965e-09 0.43750000000000000 0.12500000000000000 0.43749697910209395 0.12498752377240789 
0.50000000000000000 0.12500000000000000 0.0000000000000000 -3.2872565158378691e-06 -1.4168631888716033e-05 0.31817617303902596 1.1028042628728777e-07 -8.0859900820930822e-09 0.50000000000000000 0.12500000000000000 0.49999671274348417 0.12498583136811127 
0.56250000000000000 0.12500000000000000 0.0000000000000000 -3.4916542897517613e-06 -1.5818472444882390e-05 0.25404214024611832 9.5302273939425819e-08 -2.0499252400061378e-08 0.56250000000000000 0.12500000000000000 0.56249650834571030 0.12498418152755512 
0.62500000000000000 0.12500000000000000 0.0000000000000000 -3.6411875649125914e-06 -1.7417289328099398e-05 0.19880202516237436 8.1694327824837030e-08 -3.0598626687953405e-08 0.62500000000000000 0.12500000000000000 0.62499635881243509 0.12498258271067191 
0.68750000000000000 0.12500000000000000 0.0000000000000000 -3.7431616689001748e-06 -1.8957392083040085e-05 0.15167598100820442 6.9221184267550921e-08 -3.7768647150444058e-08 0.68750000000000000 0.12500000000000000 0.68749625683833127 0.12498104260791697 
0.75000000000000000 0.12500000000000000 0.0000000000000000 -3.8051647443961133e-06 -2.0432870391792423e-05 0.11197146912571852 5.7701125762438263e-08 -4.1464017300874913e-08 0.75000000000000000 0.12500000000000000 0.74999619483525570 0.12497956712960821 
0.81250000000000000 0.12500000000000000 0.0000000000000000 -3.8353264886562725e-06 -2.1840617979323839e-05 0.078914732681387489 4.8524509051602033e-08 -4.1055824126344980e-08 0.81250000000000000 0.12500000000000000 0.81249616467351149 0.12497815938202068 
0.87500000000000000 0.12500000000000000 0.0000000000000000 -3.8428118224194954e-06 -2.3181623818482057e-05 0.051731853511887416 3.7722248546248376e-08 -3.6563539941086749e-08 0.87500000000000000 0.12500000000000000 0.87499615718817758 0.12497681837618151 
0.93750000000000000 0.12500000000000000 0.0000000000000000 -3.8386297555898827e-06 -2.4462783573583413e-05 0.030262496618418910 3.7502065980100266e-08 -2.7426838031792418e-08 0.93750000000000000 0.12500000000000000 0.93749616137024450 0.12497553721642642 
1.0000000000000000 0.12500000000000000 0.0000000000000000 -3.8367844128597309e-06 -2.5699771967307450e-05 0.017348654749369027 0.0000000000000000 -1.8169410534928144e-08 1.0000000000000000 0.12500000000000000 0.99999616321558715 0.12497430022803269 
0.062500000000000000 0.18750000000000000 0.0000000000000000 -9.3480197146492866e-08 -1.3854186399443654e-06 0.99418985389870562 1.1129291019671551e-08 4.0290140366619697e-07 0.062500000000000000 0.18750000000000000 0.062499906519802854 0.18749861458136005 
0.0000000000000000 0.18750000000000000 0.0000000000000000 0.0000000000000000 0.0000000000000000 0.93957389875861619 0.0000000000000000 4.5285295232251224e-07 0.0000000000000000 0.18750000000000000 0.0000000000000000 0.18750000000000000 
0.12500000000000000 0.18750000000000000 0.0000000000000000 -3.2545622981673710e-07 -3.0445561397121254e-06 0.93310646987170554 1.7966747364662944e-07 3.1664023299395134e-07 0.12500000000000000 0.18750000000000000 0.12499967454377019 0.18749695544386027 
0.18750000000000000 0.18750000000000000 0.0000000000000000 -6.7556590938870357e-07 -4.8630986364668911e-06 0.80830156892155802 2.2459388434547804e-07 1.7538824933266765e-07 0.18750000000000000 0.18750000000000000 0.18749932443409059 0.18749513690136355 
0.25000000000000000 0.18750000000000000 0.0000000000000000 -1.0791080416274494e-06 -6.7313142939092250e-06 0.67148006907350055 2.0287770378809545e-07 9.5543943747164285e-08 0.25000000000000000 0.18750000000000000 0.24999892089195838 0.18749326868570607 
0.31250000000000000 0.18750000000000000 0.0000000000000000 -1.4571683502404271e-06 -8.5820878789631720e-06 0.55596935007877180 1.6370814596816776e-07 6.1290151607974422e-08 0.31250000000000000 0.18750000000000000 0.31249854283164974 0.18749141791212101 
0.37500000000000000 0.18750000000000000 0.0000000000000000 -1.7855081344539351e-06 -1.0406420350985480e-05 0.46281328991087395 1.3253406936767882e-07 3.7764184903268489e-08 0.37500000000000000 0.18750000000000000 0.37499821449186554 0.18748959357964901 
0.43750000000000000 0.18750000000000000 0.0000000000000000 -2.0577672670453404e-06 -1.2198744838904071e-05 0.38603834215074978 1.1147114862499642e-07 1.9016881465358954e-08 0.43750000000000000 0.18750000000000000 0.43749794223273303 0.18748780125516110 
0.50000000000000000 0.18750000000000000 0.0000000000000000 -2.2745138432723422e-06 -1.3951499138928459e-05 0.32107484389653068 9.5394689263301103e-08 2.1369967811234553e-09 0.50000000000000000 0.18750000000000000 0.49999772548615679 0.18748604850086106 
0.56250000000000000 0.18750000000000000 0.0000000000000000 -2.4392092202801662e-06 -1.5655892631385394e-05 0.26521375734660629 8.2468177981522325e-08 -1.2679881273402540e-08 0.56250000000000000 0.18750000000000000 0.56249756079077973 0.18748434410736861 
0.62500000000000000 0.18750000000000000 0.0000000000000000 -2.5565714274436056e-06 -1.7303085592720178e-05 0.21686522826157414 7.1440722266973702e-08 -2.5196446112569722e-08 0.62500000000000000 0.18750000000000000 0.62499744342857255 0.18748269691440725 
0.68750000000000000 0.18750000000000000 0.0000000000000000 -2.6319437768260453e-06 -1.8885100677741978e-05 0.17493358319894739 6.2045889980899443e-08 -3.5031215126168850e-08 0.68750000000000000 0.18750000000000000 0.68749736805622319 0.18748111489932226 
0.75000000000000000 0.18750000000000000 0.0000000000000000 -2.6711912981530952e-06 -2.0395546524471821e-05 0.13843138135114047 5.4080570656347806e-08 -4.1860578757835141e-08 0.75000000000000000 0.18750000000000000 0.74999732880870174 0.18747960445347553 
0.81250000000000000 0.18750000000000000 0.0000000000000000 -2.6809900196966958e-06 -2.1830316777541413e-05 0.10631819151223264 4.8877563228370464e-08 -4.5228756459829308e-08 0.81250000000000000 0.18750000000000000 0.81249731900998035 0.18747816968322242 
0.87500000000000000 0.18750000000000000 0.0000000000000000 -2.6695186416654259e-06 -2.3188413108061667e-05 0.077651135333511520 4.1910218788067450e-08 -4.5262375063988868e-08 0.87500000000000000 0.18750000000000000 0.87499733048135830 0.18747681158689192 
0.93750000000000000 0.18750000000000000 0.0000000000000000 -2.6476337895149951e-06 -2.4473053218897528e-05 0.052506505337174991 4.6608104904662107e-08 -4.0503834911035011e-08 0.93750000000000000 0.18750000000000000 0.93749735236621046 0.18747552694678113 
1.0000000000000000 0.18750000000000000 0.0000000000000000 -2.6306013343326292e-06 -2.5693465735172822e-05 0.034932501690918293 0.0000000000000000 -3.7351864975303830e-08 1.0000000000000000 0.18750000000000000 0.99999736939866557 0.18747430653426486 
0.062500000000000000 0.25000000000000000 0.0000000000000000 -5.1566382235907466e-08 -1.2706317219621483e-06 0.76202935702148500 -4.1452182203024895e-08 3.3435884433870039e-07 0.062500000000000000 0.25000000000000000 0.062499948433617773 0.24999872936827802 
0.0000000000000000 0.25000000000000000 0.0000000000000000 0.0000000000000000 0.0000000000000000 0.70354923248489198 0.0000000000000000 3.6361165531635726e-07 0.0000000000000000 0.25000000000000000 0.0000000000000000 0.25000000000000000 
0.12500000000000000 0.25000000000000000 0.0000000000000000 -1.7028682081079799e-07 -2.8188332636177200e-06 0.74387160387871110 8.5920340718008938e-08 2.9194925446667371e-07 0.12500000000000000 0.25000000000000000 0.12499982971317918 0.24999718116673639 
0.18750000000000000 0.25000000000000000 0.0000000000000000 -3.5973220537002635e-07 -4.5572545906633405e-06 0.68038933341479713 1.2412337104940823e-07 2.2009484865920931e-07 0.18750000000000000 0.25000000000000000 0.18749964026779464 0.24999544274540933 
0.25000000000000000 0.25000000000000000 0.0000000000000000 -5.9814896462036057e-07 -6.3988149076287860e-06 0.59453051014926905 1.4452860754014887e-07 1.4656986374939279e-07 0.25000000000000000 0.25000000000000000 0.24999940185103539 0.24999360118509237 
0.31250000000000000 0.25000000000000000 0.0000000000000000 -8.4801050567617493e-07 -8.2752863555075158e-06 0.50803074512934443 1.2936842700481066e-07 9.2041235307658343e-08 0.31250000000000000 0.25000000000000000 0.31249915198949435 0.24999172471364450 
0.37500000000000000 0.25000000000000000 0.0000000000000000 -1.0751486211207178e-06 -1.0144128891946068e-05 0.43269947616243520 1.0893023783041406e-07 5.8961548456028242e-08 0.37500000000000000 0.25000000000000000 0.37499892485137881 0.24998985587110803 
0.43750000000000000 0.25000000000000000 0.0000000000000000 -1.2652522493601259e-06 -1.1985920506382354e-05 0.36936659245367115 9.1839519634336882e-08 3.4756455059713480e-08 0.43750000000000000 0.25000000000000000 0.43749873474775064 0.24998801407949364 
0.50000000000000000 0.25000000000000000 0.0000000000000000 -1.4138695247480028e-06 -1.3787445551020154e-05 0.31575732249394028 7.8388498387290747e-08 1.4856750577317570e-08 0.50000000000000000 0.25000000000000000 0.49999858613047526 0.24998621255444897 
0.56250000000000000 0.25000000000000000 0.0000000000000000 -1.5212180924577583e-06 -1.5537519642777308e-05 0.26974382611296727 6.7815498461867050e-08 -2.1105480744348592e-09 0.56250000000000000 0.25000000000000000 0.56249847878190751 0.24998446248035719 
0.62500000000000000 0.25000000000000000 0.0000000000000000 -1.5897265395897050e-06 -1.7226225788239495e-05 0.22979136470978748 5.9217396052563206e-08 -1.6637751764501875e-08 0.62500000000000000 0.25000000000000000 0.62499841027346037 0.24998277377421177 
0.68750000000000000 0.25000000000000000 0.0000000000000000 -1.6229462805338613e-06 -1.8844950484765528e-05 0.19471800534849251 5.2416296716666390e-08 -2.8772206438514791e-08 0.68750000000000000 0.25000000000000000 0.68749837705371941 0.24998115504951524 
0.75000000000000000 0.25000000000000000 0.0000000000000000 -1.6252310908022463e-06 -2.0386579056313330e-05 0.16341588158910611 4.7242744190633804e-08 -3.8517497879186983e-08 0.75000000000000000 0.25000000000000000 0.74999837476890907 0.24997961342094369 
0.81250000000000000 0.25000000000000000 0.0000000000000000 -1.6019594086257325e-06 -2.1845716576156558e-05 0.13471139160081880 4.4973533759447427e-08 -4.5675326264296741e-08 0.81250000000000000 0.25000000000000000 0.81249839804059143 0.24997815428342385 
0.87500000000000000 0.25000000000000000 0.0000000000000000 -1.5602522917286296e-06 -2.3218918806444756e-05 0.10752260870162313 4.1120196756605301e-08 -5.0539068953478984e-08 0.87500000000000000 0.25000000000000000 0.87499843974770830 0.24997678108119356 
0.93750000000000000 0.25000000000000000 0.0000000000000000 -1.5102182710906148e-06 -2.4504939327258518e-05 0.081871625506733270 4.9294647653382643e-08 -5.1299363762460044e-08 0.93750000000000000 0.25000000000000000 0.93749848978172878 0.24997549506067274 
1.0000000000000000 0.25000000000000000 0.0000000000000000 -1.4666756587070975e-06 -2.5705056155071921e-05 0.061441285585328666 0.0000000000000000 -5.3471535251580066e-08 1.0000000000000000 0.25000000000000000 0.99999853332434130 0.24997429494384493 
0.062500000000000000 0.31250000000000000 0.0000000000000000 -2.6574344117190665e-08 -1.2179499962672822e-06 0.56432389581088416 -6.5736467624844678e-08 2.9215141799695591e-07 0.062500000000000000 0.31250000000000000 0.062499973425655886 0.31249878205000375 
0.0000000000000000 0.31250000000000000 0.0000000000000000 0.0000000000000000 0.0000000000000000 0.50459708997465602 0.0000000000000000 3.0958548518871782e-07 0.0000000000000000 0.31250000000000000 0.0000000000000000 0.31250000000000000 
0.12500000000000000 0.31250000000000000 0.0000000000000000 -7.5663586932045570e-08 -2.7064205329114680e-06 0.56962848484768236 3.6960100607948759e-08 2.6459784260666917e-07 0.12500000000000000 0.31250000000000000 0.12499992433641306 0.31249729357946704 
0.18750000000000000 0.31250000000000000 0.0000000000000000 -1.5818693269330129e-07 -4.3941455535103233e-06 0.54283302636968656 6.0748308635703906e-08 2.1667440208676683e-07 0.18750000000000000 0.31250000000000000 0.18749984181306731 0.31249560585444641 
0.25000000000000000 0.31250000000000000 0.0000000000000000 -2.6936562079561485e-07 -6.2081094795840412e-06 0.49707110397294757 8.2935504995049913e-08 1.6315759635656392e-07 0.25000000000000000 0.31250000000000000 0.24999973063437916 0.31249379189052040 
0.31250000000000000 0.31250000000000000 0.0000000000000000 -3.9347819743060288e-07 -8.0855028290864667e-06 0.44340691435519242 8.6127085592157152e-08 1.1326037455710129e-07 0.31250000000000000 0.31250000000000000 0.31249960652180259 0.31249191449717090 
0.37500000000000000 0.31250000000000000 0.0000000000000000 -5.1122955121046960e-07 -9.9782618992015293e-06 0.39087912173874823 7.9122576987617782e-08 7.4956170984610587e-08 0.37500000000000000 0.31250000000000000 0.37499948877044881 0.31249002173810081 
0.43750000000000000 0.31250000000000000 0.0000000000000000 -6.0749415721879707e-07 -1.1853928684215271e-05 0.34413122499839099 6.8607939214140046e-08 4.6453906795782296e-08 0.43750000000000000 0.31250000000000000 0.43749939250584280 0.31248814607131581 
0.50000000000000000 0.31250000000000000 0.0000000000000000 -6.7530460589279951e-07 -1.3692121180831837e-05 0.30376161030451210 5.9096721361541406e-08 2.3903408764293442e-08 0.50000000000000000 0.31250000000000000 0.49999932469539404 0.31248630787881915 
0.56250000000000000 0.31250000000000000 0.0000000000000000 -7.1267929951731928e-07 -1.5478170622347251e-05 0.26891940268923470 5.1265902499106646e-08 5.0445759458932372e-09 0.56250000000000000 0.31250000000000000 0.56249928732070054 0.31248452182937764 
0.62500000000000000 0.31250000000000000 0.0000000000000000 -7.2029061178138233e-07 -1.7200476942590370e-05 0.23855621730618318 4.5011234297510767e-08 -1.1151124587485361e-08 0.62500000000000000 0.31250000000000000 0.62499927970938807 0.31248279952305741 
0.68750000000000000 0.31250000000000000 0.0000000000000000 -7.0022087911484466e-07 -1.8849478478933245e-05 0.21167208584504763 4.0370908367945866e-08 -2.5147123943593753e-08 0.68750000000000000 0.31250000000000000 0.68749929977912083 0.31248115052152109 
0.75000000000000000 0.31250000000000000 0.0000000000000000 -6.5549407810719691e-07 -2.0417177823211845e-05 0.18723194928400880 3.7303644701663121e-08 -3.7247249253617241e-08 0.75000000000000000 0.31250000000000000 0.74999934450592187 0.31247958282217686 
0.81250000000000000 0.31250000000000000 0.0000000000000000 -5.9018987132782343e-07 -2.1896806956793780e-05 0.16407453490035520 3.7022397257029252e-08 -4.7504038196264845e-08 0.81250000000000000 0.31250000000000000 0.81249940981012869 0.31247810319304320 
0.87500000000000000 0.31250000000000000 0.0000000000000000 -5.1007076801125521e-07 -2.3282442084807348e-05 0.14103323831576517 3.5578000352207625e-08 -5.6346244320834321e-08 0.87500000000000000 0.31250000000000000 0.87499948992923204 0.31247671755791512 
0.93750000000000000 0.31250000000000000 0.0000000000000000 -4.2370893096766644e-07 -2.4568425374458109e-05 0.11783853553605134 4.6069274510751969e-08 -6.1721166084702323e-08 0.93750000000000000 0.31250000000000000 0.93749957629106906 0.31247543157462548 
1.0000000000000000 0.31250000000000000 0.0000000000000000 -3.4394881631682484e-07 -2.5748408515841368e-05 0.096483029588598404 0.0000000000000000 -6.8515746494982756e-08 1.0000000000000000 0.31250000000000000 0.99999965605118357 0.31247425159148418 
0.062500000000000000 0.37500000000000000 0.0000000000000000 -9.8359850514158095e-09 -1.2042101334932974e-06 0.39038683919239231 -8.4336198350566554e-08 2.6354336852215815e-07 0.062500000000000000 0.37500000000000000 0.062499990164014953 0.37499879578986656 
0.0000000000000000 0.37500000000000000 0.0000000000000000 0.0000000000000000 0.0000000000000000 0.32877662035461369 0.0000000000000000 2.7795910228684073e-07 0.0000000000000000 0.37500000000000000 0.0000000000000000 0.37500000000000000 
0.12500000000000000 0.37500000000000000 0.0000000000000000 -1.0904911974837947e-08 -2.6704570269915434e-06 0.41211064999504021 1.3875454753443812e-09 2.4034878645872233e-07 0.12500000000000000 0.37500000000000000 0.12499998909508803 0.37499732954297299 
0.18750000000000000 0.37500000000000000 0.0000000000000000 -1.5360943365385866e-08 -4.3358716476439344e-06 0.41034730948564996 1.5688869695565987e-08 2.0450539292794917e-07 0.18750000000000000 0.37500000000000000 0.18749998463905662 0.37499566412835234 
0.25000000000000000 0.37500000000000000 0.0000000000000000 -2.6461576565159563e-08 -6.1354596647723697e-06 0.39392984696475120 3.5645567844003572e-08 1.6417084509904977e-07 0.25000000000000000 0.37500000000000000 0.24999997353842343 0.37499386454033523 
0.31250000000000000 0.37500000000000000 0.0000000000000000 -4.0661655283371103e-08 -8.0112428464745920e-06 0.36884100479869925 4.3788209900573852e-08 1.2298227372420035e-07 0.31250000000000000 0.37500000000000000 0.31249995933834468 0.37499198875715350 
0.37500000000000000 0.37500000000000000 0.0000000000000000 -5.0532086051922795e-08 -9.9156587562079293e-06 0.34021989699421007 4.5757404816059739e-08 8.5970527909098467e-08 0.37500000000000000 0.37500000000000000 0.37499994946791393 0.37499008434124376 
0.43750000000000000 0.37500000000000000 0.0000000000000000 -4.8070504195619058e-08 -1.1812545184946897e-05 0.31208150673864660 4.2565971556130367e-08 5.5545875802950351e-08 0.43750000000000000 0.37500000000000000 0.43749995192949581 0.37498818745481505 
0.50000000000000000 0.37500000000000000 0.0000000000000000 -2.7588068927848629e-08 -1.3676115384987092e-05 0.28651875646293984 3.7813237828222366e-08 3.1021402595111829e-08 0.50000000000000000 0.37500000000000000 0.49999997241193112 0.37498632388461500 
0.56250000000000000 0.37500000000000000 0.0000000000000000 1.3305691280056633e-08 -1.5488294951820341e-05 0.26398904936352918 3.3165224929036501e-08 1.0591742025568395e-08 0.56250000000000000 0.37500000000000000 0.56250001330569133 0.37498451170504815 
0.62500000000000000 0.37500000000000000 0.0000000000000000 7.4793373674209695e-08 -1.7235653282196307e-05 0.24419372589545366 2.9289192325254508e-08 -6.9477636377279281e-09 0.62500000000000000 0.37500000000000000 0.62500007479337372 0.37498276434671779 
0.68750000000000000 0.37500000000000000 0.0000000000000000 1.5578899092370484e-07 -1.8907600997760497e-05 0.22654597054133685 2.6517124821961793e-08 -2.2370125808891882e-08 0.68750000000000000 0.37500000000000000 0.68750015578899093 0.37498109239900224 
0.75000000000000000 0.37500000000000000 0.0000000000000000 2.5438963542184717e-07 -2.0495294747471990e-05 0.21026605798101916 2.5015317331237076e-08 -3.6234206117800688e-08 0.75000000000000000 0.37500000000000000 0.75000025438963547 0.37497950470525249 
0.81250000000000000 0.37500000000000000 0.0000000000000000 3.6784870565210718e-07 -2.1990769782799649e-05 0.19434702191738873 2.5932004313478223e-08 -4.8837949041923946e-08 0.81250000000000000 0.37500000000000000 0.81250036784870561 0.37497800923021712 
0.87500000000000000 0.37500000000000000 0.0000000000000000 4.9209790725782280e-07 -2.3385997092646876e-05 0.17760573866569637 2.6265098151639788e-08 -6.0701551040812068e-08 0.87500000000000000 0.37500000000000000 0.87500049209790731 0.37497661400290733 