# For a description of the Tecplot format see the Tecplot User's guide.
#
Variables=x,y,z,s_u,s_v,s_p,x,y,ref_u,ref_v,u,v
Zone f=fepoint, n=4225, e=8192, et=quadrilateral, c=black
0.00000 0.00000 0.00000 0.0000000000000000 0.0000000000000000 3.3591924940389024 0.0000000000000000 0.0000000000000000 0.0000000000000000 0.0000000000000000 0.0000000000000000 0.0000000000000000 
0.015625000000000000 0.0000000000000000 0.0000000000000000 -6.9646794213362399e-07 -1.5106038817136807e-06 2.8141181585887849 7.3624688714331198e-06 0.0000000000000000 0.015625000000000000 0.0000000000000000 0.015624303532057867 -1.5106038817136807e-06 
0.015625000000000000 0.015625000000000000 0.0000000000000000 -1.8074463659868529e-07 -9.7306045104060300e-07 2.9337653220419084 4.6931453564266257e-06 1.3049180917028640e-06 0.015625000000000000 0.015625000000000000 0.015624819255363404 0.015624026939548957 
0.0000000000000000 0.015625000000000000 0.0000000000000000 0.0000000000000000 0.0000000000000000 3.1153784268753686 0.0000000000000000 4.2657479897992493e-06 0.0000000000000000 0.015625000000000000 0.0000000000000000 0.015625000000000000 
0.031250000000000000 0.0000000000000000 0.0000000000000000 -1.1492771225978843e-06 -2.3362309822942039e-06 2.1950164562981969 3.3345613935011232e-06 0.0000000000000000 0.031250000000000000 0.0000000000000000 0.031248850722877402 -2.3362309822942039e-06 
0.031250000000000000 0.015625000000000000 0.0000000000000000 -6.1975594856408853e-07 -1.9014663969813730e-06 2.3637559714040357 2.8593867205537713e-06 -1.3535773071282457e-06 0.031250000000000000 0.015625000000000000 0.031249380244051436 0.015623098533603020 
0.046875000000000000 0.0000000000000000 0.0000000000000000 -1.5160146215392319e-06 -2.9826877610583680e-06 1.8066938862272879 1.9125499397210320e-06 0.0000000000000000 0.046875000000000000 0.0000000000000000 0.046873483985378460 -2.9826877610583680e-06 
0.046875000000000000 0.015625000000000000 0.0000000000000000 -1.0063465896874834e-06 -2.6134203363131844e-06 1.9358553673180328 2.1659407917541085e-06 -8.9095989439970989e-07 0.046875000000000000 0.015625000000000000 0.046873993653410322 0.015622386579663689 
0.062500000000000000 0.0000000000000000 0.0000000000000000 -1.8379716711422245e-06 -3.5468467850695760e-06 1.5652960550072770 1.2314511791074580e-06 0.0000000000000000 0.062500000000000000 0.0000000000000000 0.062498162028328856 -3.5468467850695760e-06 
0.062500000000000000 0.015625000000000000 0.0000000000000000 -1.3517812967579031e-06 -3.2194887999861581e-06 1.6566027849163598 1.4092767708635173e-06 -7.1498471228450773e-07 0.062500000000000000 0.015625000000000000 0.062498648218703233 0.015621780511200015 
0.078125000000000000 0.0000000000000000 0.0000000000000000 -2.1318294379785725e-06 -4.0631204103894101e-06 1.4032554475483805 8.4506821568713914e-07 0.0000000000000000 0.078125000000000000 0.0000000000000000 0.078122868170562021 -4.0631204103894101e-06 
0.078125000000000000 0.015625000000000000 0.0000000000000000 -1.6663070828708539e-06 -3.7648913532762657e-06 1.4687583748382032 9.8452446856411027e-07 -5.1391250426871803e-07 0.078125000000000000 0.015625000000000000 0.078123333692917130 0.015621235108646726 
0.093750000000000000 0.0000000000000000 0.0000000000000000 -2.4056010288736453e-06 -4.5484838441923392e-06 1.2864914481683896 6.2766155442278159e-07 0.0000000000000000 0.093750000000000000 0.0000000000000000 0.093747594398971124 -4.5484838441923392e-06 
0.093750000000000000 0.015625000000000000 0.0000000000000000 -1.9567218469194505e-06 -4.2720490374388959e-06 1.3350307623023703 7.3097663030612914e-07 -3.8137525408186773e-07 0.093750000000000000 0.015625000000000000 0.093748043278153101 0.015620727950962561 
0.10937500000000000 0.0000000000000000 0.0000000000000000 -2.6636215416406935e-06 -5.0126984657524280e-06 1.1966789106069542 4.9738533531524751e-07 0.0000000000000000 0.10937500000000000 0.0000000000000000 0.10937233637845838 -5.0126984657524280e-06 
0.10937500000000000 0.015625000000000000 0.0000000000000000 -2.2276567721156901e-06 -4.7535964684541630e-06 1.2338416385528495 5.7251469938853230e-07 -2.8570634319675162e-07 0.10937500000000000 0.015625000000000000 0.10937277234322788 0.015620246403531546 
0.12500000000000000 0.0000000000000000 0.0000000000000000 -2.9084658005381872e-06 -5.4619568293440491e-06 1.1237061191716269 4.1484195396109622e-07 0.0000000000000000 0.12500000000000000 0.0000000000000000 0.12499709153419947 -5.4619568293440491e-06 
0.12500000000000000 0.015625000000000000 0.0000000000000000 -2.4823324967287948e-06 -5.2173257251297977e-06 1.1530163418048227 4.6989295794027239e-07 -2.1701512799162139e-07 0.12500000000000000 0.015625000000000000 0.12499751766750329 0.015619782674274871 
0.14062500000000000 0.0000000000000000 0.0000000000000000 -3.1417786246678703e-06 -5.9004342520162686e-06 1.0617826950935203 3.5988692003954217e-07 0.0000000000000000 0.14062500000000000 0.0000000000000000 0.14062185822137532 -5.9004342520162686e-06 
0.14062500000000000 0.015625000000000000 0.0000000000000000 -2.7230367520932727e-06 -5.6683480219386752e-06 1.0855117594990009 4.0062726518324328e-07 -1.6667847189302762e-07 0.14062500000000000 0.015625000000000000 0.14062227696324792 0.015619331651978064 
0.15625000000000000 0.0000000000000000 0.0000000000000000 -3.3646754033695528e-06 -6.3310634717972964e-06 1.0074431242774320 3.2160042233105586e-07 0.0000000000000000 0.15625000000000000 0.0000000000000000 0.15624663532459662 -6.3310634717972964e-06 
0.15625000000000000 0.015625000000000000 0.0000000000000000 -2.9514292020289263e-06 -6.1101709055297524e-06 1.0271028466722336 3.5202605406962133e-07 -1.2919153641965045e-07 0.15625000000000000 0.015625000000000000 0.15624704857079796 0.015618889829094471 
0.17187500000000000 0.0000000000000000 0.0000000000000000 -3.5779502752435051e-06 -6.7559623693933091e-06 0.95852163765114329 2.9385030279105808e-07 0.0000000000000000 0.17187500000000000 0.0000000000000000 0.17187142204972475 -6.7559623693933091e-06 
0.17187500000000000 0.015625000000000000 0.0000000000000000 -3.1687386118449956e-06 -6.5452807565411625e-06 0.97515314461057356 3.1673418605631323e-07 -1.0093537806162335e-07 0.17187500000000000 0.015625000000000000 0.17187183126138816 0.015618454719243459 
0.18750000000000000 0.0000000000000000 0.0000000000000000 -3.7821919673907293e-06 -7.1766891476584436e-06 0.91360892816674200 2.7303559550370945e-07 0.0000000000000000 0.18750000000000000 0.0000000000000000 0.18749621780803261 -7.1766891476584436e-06 
0.18750000000000000 0.015625000000000000 0.0000000000000000 -3.3758932802209578e-06 -6.9754809837619363e-06 0.92795201366434210 2.9031258413107423e-07 -7.9470671314940358e-08 0.18750000000000000 0.015625000000000000 0.18749662410671977 0.015618024519016239 
0.20312500000000000 0.0000000000000000 0.0000000000000000 -3.9778522145106678e-06 -7.5944035456989277e-06 0.87175474141747566 2.5694541862280452e-07 0.0000000000000000 0.20312500000000000 0.0000000000000000 0.20312102214778549 -7.5944035456989277e-06 
0.20312500000000000 0.015625000000000000 0.0000000000000000 -3.5736087431710401e-06 -7.4020996625728489e-06 0.88434955532367443 2.6998514045776222e-07 -6.3113162631477286e-08 0.20312500000000000 0.015625000000000000 0.20312142639125683 0.015617597900337427 
0.21875000000000000 0.0000000000000000 0.0000000000000000 -4.1652883470466147e-06 -8.0099733754983341e-06 0.83229892024055852 2.4416534112390121e-07 0.0000000000000000 0.21875000000000000 0.0000000000000000 0.21874583471165296 -8.0099733754983341e-06 
0.21875000000000000 0.015625000000000000 0.0000000000000000 -3.7624477302010711e-06 -7.8261231386361736e-06 0.84354892287713634 2.5395346098274184e-07 -5.0668118994857162e-08 0.21875000000000000 0.015625000000000000 0.21874623755226977 0.015617173876861365 
0.23437500000000000 0.0000000000000000 0.0000000000000000 -4.3447910395671687e-06 -8.4240475168969581e-06 0.79477163015105867 2.3375594564638083e-07 0.0000000000000000 0.23437500000000000 0.0000000000000000 0.23437065520896047 -8.4240475168969581e-06 
0.23437500000000000 0.015625000000000000 0.0000000000000000 -3.9428618269024418e-06 -8.2482854385297405e-06 0.80498386375136644 2.4101394380013551e-07 -4.1267251118820934e-08 0.23437500000000000 0.015625000000000000 0.23437105713817311 0.015616751714561472 
0.25000000000000000 0.0000000000000000 0.0000000000000000 -4.5166031082073502e-06 -8.8371074584620033e-06 0.75883213922835913 2.2507249576747613e-07 0.0000000000000000 0.25000000000000000 0.0000000000000000 0.24999548339689179 -8.8371074584620033e-06 
0.25000000000000000 0.015625000000000000 0.0000000000000000 -4.1152208957271076e-06 -8.6691301392754897e-06 0.76824382594511087 2.3033746372455708e-07 -3.4265642064087719e-08 0.25000000000000000 0.015625000000000000 0.24999588477910431 0.015616330869860725 
0.26562500000000000 0.0000000000000000 0.0000000000000000 -4.6809326658968738e-06 -9.2495046362630228e-06 0.72422986594011751 2.1765991331646970e-07 0.0000000000000000 0.26562500000000000 0.0000000000000000 0.26562031906733408 -9.2495046362630228e-06 
0.26562500000000000 0.015625000000000000 0.0000000000000000 -4.2798341804993759e-06 -9.0890544276478598e-06 0.73302650095432931 2.2133824940234268e-07 -2.9174982326972471e-08 0.26562500000000000 0.015625000000000000 0.26562072016581956 0.015615910945572352 
0.28125000000000000 0.0000000000000000 0.0000000000000000 -4.8379625785414528e-06 -9.6614880954664300e-06 0.69077875630351482 2.1118931028205100e-07 0.0000000000000000 0.28125000000000000 0.0000000000000000 0.28124516203742145 -9.6614880954664300e-06 
0.28125000000000000 0.015625000000000000 0.0000000000000000 -4.4369656739940994e-06 -9.5083412685087926e-06 0.69910674534675188 2.1359332835455928e-07 -2.5619195213691674e-08 0.28125000000000000 0.015625000000000000 0.28124556303432602 0.015615491658731493 
0.29687500000000000 0.0000000000000000 0.0000000000000000 -4.9878574111789339e-06 -1.0073225391412192e-05 0.65833991914586865 2.0541826954983364e-07 0.0000000000000000 0.29687500000000000 0.0000000000000000 0.29687001214258885 -1.0073225391412192e-05 
0.29687500000000000 0.015625000000000000 0.0000000000000000 -4.5868454662625762e-06 -9.9271834101321153e-06 0.66631561414600615 2.0679151123198757e-07 -2.3304219544468310e-08 0.29687500000000000 0.015625000000000000 0.29687041315453372 0.015615072816589868 
0.31250000000000000 0.0000000000000000 0.0000000000000000 -5.1307686196359056e-06 -1.0484818662970824e-05 0.62680954474459394 2.0016516975730587e-07 0.0000000000000000 0.31250000000000000 0.0000000000000000 0.31249486923138037 -1.0484818662970824e-05 
0.31250000000000000 0.015625000000000000 0.0000000000000000 -4.7296782336761211e-06 -1.0345701646846996e-05 0.63452583830460418 2.0070015786453069e-07 -2.1996977084641078e-08 0.31250000000000000 0.015625000000000000 0.31249527032176633 0.015614654298353153 
0.32812500000000000 0.0000000000000000 0.0000000000000000 -5.2668384844443276e-06 -1.0896317190207084e-05 0.59611030450009761 1.9529209299511245e-07 0.0000000000000000 0.32812500000000000 0.0000000000000000 0.32811973316151555 -1.0896317190207084e-05 
0.32812500000000000 0.015625000000000000 0.0000000000000000 -4.8656496633951026e-06 -1.0763958952976377e-05 0.60364153055409908 1.9514296253112546e-07 -2.1510441979870885e-08 0.32812500000000000 0.015625000000000000 0.32812013435033660 0.015614236041047025 
0.34375000000000000 0.0000000000000000 0.0000000000000000 -5.3962031237801009e-06 -1.1307727346192292e-05 0.56618510577733117 1.9069314192655071e-07 0.0000000000000000 0.34375000000000000 0.0000000000000000 0.34374460379687627 -1.1307727346192292e-05 
0.34375000000000000 0.015625000000000000 0.0000000000000000 -4.9949313657705251e-06 -1.1181971590208495e-05 0.57359074004835442 1.8998475403136060e-07 -2.1692853149770758e-08 0.34375000000000000 0.015625000000000000 0.34374500506863420 0.015613818028409792 
0.35937500000000000 0.0000000000000000 0.0000000000000000 -5.5189948200046615e-06 -1.1719020586147351e-05 0.53699247853545662 1.8628626389266291e-07 0.0000000000000000 0.35937500000000000 0.0000000000000000 0.35936948100518001 -1.1719020586147351e-05 
0.35937500000000000 0.015625000000000000 0.0000000000000000 -5.1176846645005969e-06 -1.1599717957206214e-05 0.54431997239815411 1.8512087333534317e-07 -2.2419794492346214e-08 0.35937500000000000 0.015625000000000000 0.35936988231533551 0.015613400282042793 
0.37500000000000000 0.0000000000000000 0.0000000000000000 -5.6353438271927219e-06 -1.2130139936636527e-05 0.50850311689983652 1.8200740752373412e-07 0.0000000000000000 0.37500000000000000 0.0000000000000000 0.37499436465617281 -1.2130139936636527e-05 
0.37500000000000000 0.015625000000000000 0.0000000000000000 -5.2340635436341414e-06 -1.2017145728162751e-05 0.51579009476021020 1.8046960661882065e-07 -2.3588294593789654e-08 0.37500000000000000 0.015625000000000000 0.37499476593645636 0.015612982854271837 
0.39062500000000000 0.0000000000000000 0.0000000000000000 -5.7453797816612417e-06 -1.2541005323146587e-05 0.48069725398007429 1.7780626683171760e-07 0.0000000000000000 0.39062500000000000 0.0000000000000000 0.39061925462021835 -1.2541005323146587e-05 
0.39062500000000000 0.015625000000000000 0.0000000000000000 -5.3442169541260045e-06 -1.2434177675983540e-05 0.48797323580978363 1.7596670003670223e-07 -2.5112370373226972e-08 0.39062500000000000 0.015625000000000000 0.39061965578304586 0.015612565822324015 
0.40625000000000000 0.0000000000000000 0.0000000000000000 -5.8492328061584659e-06 -1.2951517987225537e-05 0.45356264831939569 1.7364312833845918e-07 0.0000000000000000 0.40625000000000000 0.0000000000000000 0.40624415076719383 -1.2951517987225537e-05 
0.40625000000000000 0.015625000000000000 0.0000000000000000 -5.4482906292405766e-06 -1.2850716471179730e-05 0.46085041273681121 1.7156131977240339e-07 -2.6919617191088538e-08 0.40625000000000000 0.015625000000000000 0.40624455170937074 0.015612149283528819 
0.42187500000000000 0.0000000000000000 0.0000000000000000 -5.9470343762410903e-06 -1.3361564182365391e-05 0.42709302637779661 1.6948649919315893e-07 0.0000000000000000 0.42187500000000000 0.0000000000000000 0.42186905296562377 -1.3361564182365391e-05 
0.42187500000000000 0.015625000000000000 0.0000000000000000 -5.5464285202525845e-06 -1.3266648673928174e-05 0.43440969785391070 1.6721303300661153e-07 -2.8948566525749070e-08 0.42187500000000000 0.015625000000000000 0.42186945357147981 0.015611733351326070 
0.43750000000000000 0.0000000000000000 0.0000000000000000 -6.0389180014495825e-06 -1.3771018293130065e-05 0.40128686987796680 1.6531129791321868e-07 0.0000000000000000 0.43750000000000000 0.0000000000000000 0.43749396108199856 -1.3771018293130065e-05 
0.43750000000000000 0.015625000000000000 0.0000000000000000 -5.6387739367157060e-06 -1.3681848084154546e-05 0.40864479139318205 1.6288952178444307e-07 -3.1146612689106615e-08 0.43750000000000000 0.015625000000000000 0.43749436122606328 0.015611318151915845 
0.45312500000000000 0.0000000000000000 0.0000000000000000 -6.1250197622410522e-06 -1.4179745489433839e-05 0.37614646727860462 1.6109745705862362e-07 0.0000000000000000 0.45312500000000000 0.0000000000000000 0.45311887498023778 -1.4179745489433839e-05 
0.45312500000000000 0.015625000000000000 0.0000000000000000 -5.7254704557930030e-06 -1.4096178576430278e-05 0.38355390395682248 1.5856483113219568e-07 -3.3468365390546722e-08 0.45312500000000000 0.015625000000000000 0.45311927452954420 0.015610903821423572 
0.46875000000000000 0.0000000000000000 0.0000000000000000 -6.2054787349714742e-06 -1.4587604003843199e-05 0.35167716982261049 1.5682883226490461e-07 0.0000000000000000 0.46875000000000000 0.0000000000000000 0.46874379452126497 -1.4587604003843199e-05 
0.46875000000000000 0.015625000000000000 0.0000000000000000 -5.8066626505612555e-06 -1.4509496518605105e-05 0.35913887769628955 1.5421801242670071e-07 -3.5874323581803447e-08 0.46875000000000000 0.015625000000000000 0.46874419333734946 0.015610490503481395 
0.48437500000000000 0.0000000000000000 0.0000000000000000 -6.2804373306676141e-06 -1.4994447101894293e-05 0.32788680755451166 1.5249234266968866e-07 0.0000000000000000 0.48437500000000000 0.0000000000000000 0.48436871956266936 -1.4994447101894293e-05 
0.48437500000000000 0.015625000000000000 0.0000000000000000 -5.8824966763059333e-06 -1.4921652852491126e-05 0.33540449332537392 1.4983206352976559e-07 -3.8329793344934114e-08 0.48437500000000000 0.015625000000000000 0.48436911750332362 0.015610078347147506 
0.50000000000000000 0.0000000000000000 0.0000000000000000 -6.3500415682981634e-06 -1.5400124802012584e-05 0.30478523137277547 1.4807728892064238e-07 0.0000000000000000 0.50000000000000000 0.0000000000000000 0.49999364995843171 -1.5400124802012584e-05 
0.50000000000000000 0.015625000000000000 0.0000000000000000 -5.9531207455702903e-06 -1.5332494899551412e-05 0.31235792292074543 1.4539309515784563e-07 -4.0803992133670028e-08 0.50000000000000000 0.015625000000000000 0.49999404687925436 0.015609667505100450 
0.51562500000000000 0.0000000000000000 0.0000000000000000 -6.4144412993267293e-06 -1.5804485391514681e-05 0.28238395487123297 1.4357480983039117e-07 0.0000000000000000 0.51562500000000000 0.0000000000000000 0.51561858555870066 -1.5804485391514681e-05 
0.51562500000000000 0.015625000000000000 0.0000000000000000 -6.0186855163794979e-06 -1.5741867943021139e-05 0.29000829770908698 1.4088967254137930e-07 -4.3269295786786908e-08 0.51562500000000000 0.015625000000000000 0.51561898131448369 0.015609258132056979 
0.53125000000000000 0.0000000000000000 0.0000000000000000 -6.4737903972092658e-06 -1.6207376777528606e-05 0.26069587529510729 1.3897744937852643e-07 0.0000000000000000 0.53125000000000000 0.0000000000000000 0.53124352620960280 -1.6207376777528606e-05 
0.53125000000000000 0.015625000000000000 0.0000000000000000 -6.0793444131095142e-06 -1.6149616629211854e-05 0.26836636673836251 1.3631229542149217e-07 -4.5700595047942177e-08 0.53125000000000000 0.015625000000000000 0.53124392065558690 0.015608850383370789 
0.54687500000000000 0.0000000000000000 0.0000000000000000 -6.5282469229697682e-06 -1.6608647705888284e-05 0.23973505697795913 1.3427881355091305e-07 0.0000000000000000 0.54687500000000000 0.0000000000000000 0.54686847175307707 -1.6608647705888284e-05 
0.54687500000000000 0.015625000000000000 0.0000000000000000 -6.1352538955363028e-06 -1.6555586224215133e-05 0.24744422719673656 1.3165298955696689e-07 -4.8074735875420830e-08 0.54687500000000000 0.015625000000000000 0.54686886474610441 0.015608444413775785 
0.56250000000000000 0.0000000000000000 0.0000000000000000 -6.5779732758900987e-06 -1.7008148876710050e-05 0.21951656353287721 1.2947330232957292e-07 0.0000000000000000 0.56250000000000000 0.0000000000000000 0.56249342202672414 -1.7008148876710050e-05 
0.56250000000000000 0.015625000000000000 0.0000000000000000 -6.1865736884097628e-06 -1.6959623757327359e-05 0.22725511066304641 1.2690499046490518e-07 -5.0370023438813628e-08 0.56250000000000000 0.015625000000000000 0.56249381342631155 0.015608040376242671 
0.57812500000000000 0.0000000000000000 0.0000000000000000 -6.6231363365597480e-06 -1.7405733982129842e-05 0.20005632711667873 1.2455590664863242e-07 0.0000000000000000 0.57812500000000000 0.0000000000000000 0.57811837686366341 -1.7405733982129842e-05 
0.57812500000000000 0.015625000000000000 0.0000000000000000 -6.2334669812431697e-06 -1.7361579078900769e-05 0.20781321207983952 1.2206250587154632e-07 -5.2565773884331023e-08 0.57812500000000000 0.015625000000000000 0.57811876653301875 0.015607638420921098 
0.59375000000000000 0.0000000000000000 0.0000000000000000 -6.6639076079513163e-06 -1.7801260689343774e-05 0.18137104444756635 1.1952206382511424e-07 0.0000000000000000 0.59375000000000000 0.0000000000000000 0.59374333609239205 -1.7801260689343774e-05 
0.59375000000000000 0.015625000000000000 0.0000000000000000 -6.2761006057346566e-06 -1.7761305857727933e-05 0.18913354995830903 1.1712054792213096e-07 -5.4641901078084922e-08 0.59375000000000000 0.015625000000000000 0.59374372389939423 0.015607238694142272 
0.60937500000000000 0.0000000000000000 0.0000000000000000 -6.7004633587348069e-06 -1.8194591590488954e-05 0.16347809004980410 1.1436756806633857e-07 0.0000000000000000 0.60937500000000000 0.0000000000000000 0.60936829953664129 -1.8194591590488954e-05 
0.60937500000000000 0.015625000000000000 0.0000000000000000 -6.3146451962158948e-06 -1.8158662541304237e-05 0.17123184740114158 1.1207483003175218e-07 -5.6578527970242642e-08 0.60937500000000000 0.015625000000000000 0.60936868535480382 0.015606841337458696 
0.62500000000000000 0.0000000000000000 0.0000000000000000 -6.7329847716437261e-06 -1.8585595139911306e-05 0.14639543748569375 1.0908853561393632e-07 0.0000000000000000 0.62500000000000000 0.0000000000000000 0.62499326701522839 -1.8585595139911306e-05 
0.62500000000000000 0.015625000000000000 0.0000000000000000 -6.3492753366484086e-06 -1.8553513301259543e-05 0.15412442405366403 1.0692172666217798e-07 -5.8355614090361984e-08 0.62500000000000000 0.015625000000000000 0.62499365072466340 0.015606446486698738 
0.64062500000000000 0.0000000000000000 0.0000000000000000 -6.7616580982856392e-06 -1.8974146598912912e-05 0.13014157913572680 1.0368142695374127e-07 0.0000000000000000 0.64062500000000000 0.0000000000000000 0.64061823834190168 -1.8974146598912912e-05 
0.64062500000000000 0.015625000000000000 0.0000000000000000 -6.3801696958639628e-06 -1.8945728985821431e-05 0.13782808910821595 1.0165829758912427e-07 -5.9952592264729027e-08 0.64062500000000000 0.015625000000000000 0.64061861983030421 0.015606054271014179 
0.65625000000000000 0.0000000000000000 0.0000000000000000 -6.7866748202707502e-06 -1.9360129008104093e-05 0.11473543438204310 9.8143131715978150e-08 0.0000000000000000 0.65625000000000000 0.0000000000000000 0.65624321332517976 -1.9360129008104093e-05 
0.65625000000000000 0.015625000000000000 0.0000000000000000 -6.4075111508813184e-06 -1.9335188101324183e-05 0.12236002499432548 9.6282381642386115e-08 -6.1348009078717386e-08 0.65625000000000000 0.015625000000000000 0.65624359248884911 0.015605664811898677 
0.67187500000000000 0.0000000000000000 0.0000000000000000 -6.8082318148245763e-06 -1.9743434207976947e-05 0.10019623478057853 9.2471125540383513e-08 0.0000000000000000 0.67187500000000000 0.0000000000000000 0.67186819176818513 -1.9743434207976947e-05 
0.67187500000000000 0.015625000000000000 0.0000000000000000 -6.4314868961316544e-06 -1.9721777845489577e-05 0.10773765035299414 9.0792768667016956e-08 -6.2519165094394670e-08 0.67187500000000000 0.015625000000000000 0.67186856851310395 0.015605278222154512 
0.68750000000000000 0.0000000000000000 0.0000000000000000 -6.8265315210438967e-06 -2.0123963929257306e-05 0.086543372867931720 8.6663712732240040e-08 0.0000000000000000 0.68750000000000000 0.0000000000000000 0.68749317346847894 -2.0123963929257306e-05 
0.68750000000000000 0.015625000000000000 0.0000000000000000 -6.4522885341851336e-06 -2.0105395216488291e-05 0.093978449245523468 8.5189462913070697e-08 -6.3441752676218953e-08 0.68750000000000000 0.015625000000000000 0.68749354771146587 0.015604894604783511 
0.70312500000000000 0.0000000000000000 0.0000000000000000 -6.8417821005061743e-06 -2.0501630975989132e-05 0.073796198485234957 8.0720374251884799e-08 0.0000000000000000 0.70312500000000000 0.0000000000000000 0.70311815821789947 -2.0501630975989132e-05 
0.70312500000000000 0.015625000000000000 0.0000000000000000 -6.4701121409698634e-06 -2.0485948223676994e-05 0.081099751169843623 7.9474056474074287e-08 -6.4089491802649222e-08 0.70312500000000000 0.015625000000000000 0.70311852988785895 0.015604514051776321 
0.71875000000000000 0.0000000000000000 0.0000000000000000 -6.8541975828597277e-06 -2.0876360526172241e-05 0.061973742695702431 7.4642248157684501e-08 0.0000000000000000 0.71875000000000000 0.0000000000000000 0.71874314580241716 -2.0876360526172241e-05 
0.71875000000000000 0.015625000000000000 0.0000000000000000 -6.4851582953666714e-06 -2.0863357228449238e-05 0.069118443195825066 7.3650238106210154e-08 -6.4433768040283218e-08 0.71875000000000000 0.015625000000000000 0.71874351484170462 0.015604136642771551 
0.73437500000000000 0.0000000000000000 0.0000000000000000 -6.8639979830416019e-06 -2.1248091577134124e-05 0.051094344234137806 6.8432779557917329e-08 0.0000000000000000 0.73437500000000000 0.0000000000000000 0.73436813600201700 -2.1248091577134124e-05 
0.73437500000000000 0.015625000000000000 0.0000000000000000 -6.4976320592715077e-06 -2.1237556446911525e-05 0.058050591182316001 6.7724471148458557e-08 -6.4443282796204400e-08 0.73437500000000000 0.015625000000000000 0.73436850236794082 0.015603762443553089 
0.75000000000000000 0.0000000000000000 0.0000000000000000 -6.8714093715201098e-06 -2.1616778565682052e-05 0.041175146591981085 6.2098590494073869e-08 0.0000000000000000 0.75000000000000000 0.0000000000000000 0.74999312859062839 -2.1616778565682052e-05 
0.75000000000000000 0.015625000000000000 0.0000000000000000 -6.5077428895239513e-06 -2.1608495650180875e-05 0.047910941372418171 6.1706884548262907e-08 -6.4083735416674153e-08 0.75000000000000000 0.015625000000000000 0.74999349225711043 0.015603391504349818 
0.76562500000000000 0.0000000000000000 0.0000000000000000 -6.8766638719056744e-06 -2.1982393196441149e-05 0.032231424887225149 5.5650637625287007e-08 0.0000000000000000 0.76562500000000000 0.0000000000000000 0.76561812333612822 -2.1982393196441149e-05 
0.76562500000000000 0.015625000000000000 0.0000000000000000 -6.5157044572403597e-06 -2.1976142103070167e-05 0.038712266451965217 5.5612433042045072e-08 -6.3317571891630652e-08 0.76562500000000000 0.015625000000000000 0.76561848429554280 0.015603023857896929 
0.78125000000000000 0.0000000000000000 0.0000000000000000 -6.8799995506374605e-06 -2.2344926515555031e-05 0.024275690189768297 4.9105748817843089e-08 0.0000000000000000 0.78125000000000000 0.0000000000000000 0.78124312000044938 -2.2344926515555031e-05 
0.78125000000000000 0.015625000000000000 0.0000000000000000 -6.5217343427467570e-06 -2.2340482787804597e-05 0.030464511279509398 4.9462395734993193e-08 -6.2103859095223566e-08 0.78125000000000000 0.015625000000000000 0.78124347826565721 0.015602659517212195 
0.79687500000000000 0.0000000000000000 0.0000000000000000 -6.8816601500784363e-06 -2.2704391270876994e-05 0.017316504779066492 4.2488656648437040e-08 0.0000000000000000 0.79687500000000000 0.0000000000000000 0.79686811833984994 -2.2704391270876994e-05 
0.79687500000000000 0.015625000000000000 0.0000000000000000 -6.5260535651137685e-06 -2.2701526966083889e-05 0.023173683170760909 4.3286292355326313e-08 -6.0398382936440086e-08 0.79687500000000000 0.015625000000000000 0.79686847394643490 0.015602298473033916 
0.81250000000000000 0.0000000000000000 0.0000000000000000 -6.8818945974997112e-06 -2.3060824603354945e-05 0.011356925349425914 3.5834682682661930e-08 0.0000000000000000 0.81250000000000000 0.0000000000000000 0.81249311810540237 -2.3060824603354945e-05 
0.81250000000000000 0.015625000000000000 0.0000000000000000 -6.5288858938506699e-06 -2.3059309139836004e-05 0.016840420848241954 3.7124300764009033e-08 -5.8154128247793798e-08 0.81250000000000000 0.015625000000000000 0.81249347111410619 0.015601940690860164 
0.82812500000000000 0.0000000000000000 0.0000000000000000 -6.8809561954618306e-06 -2.3414291116301028e-05 0.0063924746431292820 2.9193245204594367e-08 0.0000000000000000 0.82812500000000000 0.0000000000000000 0.82811811904380450 -2.3414291116301028e-05 
0.82812500000000000 0.015625000000000000 0.0000000000000000 -6.5304568762064595e-06 -2.3413892477289436e-05 0.011458167846937838 3.1030227332160109e-08 -5.5322405463487049e-08 0.82812500000000000 0.015625000000000000 0.82811846954312396 0.015601586107522712 
0.84375000000000000 0.0000000000000000 0.0000000000000000 -6.8791013599207886e-06 -2.3764886367005537e-05 0.0024085304332234769 2.2632392061736357e-08 0.0000000000000000 0.84375000000000000 0.0000000000000000 0.84374312089864001 -2.3764886367005537e-05 
0.84375000000000000 0.015625000000000000 0.0000000000000000 -6.5309924963389721e-06 -2.3765372773975293e-05 0.0070108762954965162 2.5075026706022287e-08 -5.1855003755581064e-08 0.84375000000000000 0.015625000000000000 0.84374346900750374 0.015601234627226025 
0.85937500000000000 0.0000000000000000 0.0000000000000000 -6.8765877147224755e-06 -2.4112740813327544e-05 -0.00062297132636962951 1.6244501669015531e-08 0.0000000000000000 0.85937500000000000 0.0000000000000000 0.85936812341228530 -2.4112740813327544e-05 
0.85937500000000000 0.015625000000000000 0.0000000000000000 -6.5307173619640368e-06 -2.4113883012585568e-05 0.0034701906278752181 1.9350604573813545e-08 -4.7708138980538214e-08 0.85937500000000000 0.015625000000000000 0.85936846928263788 0.015600886116987414 
0.87500000000000000 0.0000000000000000 0.0000000000000000 -6.8736712649482617e-06 -2.4458024214392507e-05 -0.0027475793379160163 1.0152915078080332e-08 0.0000000000000000 0.87500000000000000 0.0000000000000000 0.87499312632873505 -2.4458024214392507e-05 
0.87500000000000000 0.015625000000000000 0.0000000000000000 -6.5298522890444734e-06 -2.4459598559725941e-05 0.00079212621624859909 1.3973356389692302e-08 -4.2848743015313677e-08 0.87500000000000000 0.015625000000000000 0.87499347014771101 0.015600540401440275 
0.89062500000000000 0.0000000000000000 0.0000000000000000 -6.8706022422484951e-06 -2.4800950406643051e-05 -0.0040330223113725387 4.5203779104829399e-09 0.0000000000000000 0.89062500000000000 0.0000000000000000 0.89061812939775775 -2.4800950406643051e-05 
0.89062500000000000 0.015625000000000000 0.0000000000000000 -6.5286111242395474e-06 -2.4802742969469483e-05 -0.0010865622413209622 9.0859800474738455e-09 -3.7266439856310137e-08 0.89062500000000000 0.015625000000000000 0.89061847138887573 0.015600197257030530 
0.90625000000000000 0.0000000000000000 0.0000000000000000 -6.8676190164816277e-06 -2.5141782193683446e-05 -0.0045742575108674837 -4.4877695018742981e-10 0.0000000000000000 0.90625000000000000 0.0000000000000000 0.90624313238098353 -2.5141782193683446e-05 