# For a description of the Tecplot format see the Tecplot User's guide.
#
Variables=x,y,z,s_u,s_v,s_p,x,y,ref_u,ref_v,u,v
Zone f=fepoint, n=1089, e=2048, et=quadrilateral, c=black
0.00000 0.00000 0.00000 0.0000000000000000 0.0000000000000000 2.6766922768129051 0.0000000000000000 0.0000000000000000 0.0000000000000000 0.0000000000000000 0.0000000000000000 0.0000000000000000 
0.031250000000000000 0.0000000000000000 0.0000000000000000 -1.0610907218449791e-06 -2.2746691458394658e-06 2.1857713181902265 3.4489153777853015e-06 0.0000000000000000 0.031250000000000000 0.0000000000000000 0.031248938909278157 -2.2746691458394658e-06 
0.031250000000000000 0.031250000000000000 0.0000000000000000 -2.6799459544850167e-07 -1.4434823781881233e-06 2.2864078006662751 2.1108049383402304e-06 6.2915925492704553e-07 0.031250000000000000 0.031250000000000000 0.031249732005404551 0.031248556517621814 
0.0000000000000000 0.031250000000000000 0.0000000000000000 0.0000000000000000 0.0000000000000000 2.4285148578819773 0.0000000000000000 2.2527132475295382e-06 0.0000000000000000 0.031250000000000000 0.0000000000000000 0.031250000000000000 
0.062500000000000000 0.0000000000000000 0.0000000000000000 -1.7727217723476882e-06 -3.5263639004917062e-06 1.6489000973711658 1.2095843812190982e-06 0.0000000000000000 0.062500000000000000 0.0000000000000000 0.062498227278227653 -3.5263639004917062e-06 
0.062500000000000000 0.031250000000000000 0.0000000000000000 -9.4255967832257867e-07 -2.8565381270108615e-06 1.7872290993772275 1.2041211160712374e-06 -6.3699731520211921e-07 0.062500000000000000 0.031250000000000000 0.062499057440321686 0.031247143461872989 
0.093750000000000000 0.0000000000000000 0.0000000000000000 -2.3576841674314449e-06 -4.5404173476341102e-06 1.3425640049360759 7.3715495100352500e-07 0.0000000000000000 0.093750000000000000 0.0000000000000000 0.093747642315832588 -4.5404173476341102e-06 
0.093750000000000000 0.031250000000000000 0.0000000000000000 -1.5377218429120725e-06 -3.9726742724185875e-06 1.4338338853576185 8.8082235387461391e-07 -2.9816166335108548e-07 0.093750000000000000 0.031250000000000000 0.093748462278157085 0.031246027325727583 
0.12500000000000000 0.0000000000000000 0.0000000000000000 -2.8710377976890815e-06 -5.4597929142927254e-06 1.1533457612088178 4.8457009413090791e-07 0.0000000000000000 0.12500000000000000 0.0000000000000000 0.12499712896220232 -5.4597929142927254e-06 
0.12500000000000000 0.031250000000000000 0.0000000000000000 -2.0661731037529117e-06 -4.9602464869868305e-06 1.2115833902292741 5.5424946907121452e-07 -2.0028691895358034e-07 0.12500000000000000 0.031250000000000000 0.12499793382689627 0.031245039753513015 
0.15625000000000000 0.0000000000000000 0.0000000000000000 -3.3339817153137796e-06 -6.3328745079303978e-06 1.0209623724611820 3.5821874354266519e-07 0.0000000000000000 0.15625000000000000 0.0000000000000000 0.15624666601828469 -6.3328745079303978e-06 
0.15625000000000000 0.031250000000000000 0.0000000000000000 -2.5408118711151205e-06 -5.8842908476199401e-06 1.0601959468468345 4.0744765955606076e-07 -1.1759321988200188e-07 0.15625000000000000 0.031250000000000000 0.15624745918812888 0.031244115709152375 
0.18750000000000000 0.0000000000000000 0.0000000000000000 -3.7563619965355657e-06 -7.1817313474135423e-06 0.91825129244178172 2.9260294389891307e-07 0.0000000000000000 0.18750000000000000 0.0000000000000000 0.18749624363800346 -7.1817313474135423e-06 
0.18750000000000000 0.031250000000000000 0.0000000000000000 -2.9704462225759690e-06 -6.7747089713871916e-06 0.94662085595550705 3.2310805151233673e-07 -7.2364288790780415e-08 0.18750000000000000 0.031250000000000000 0.18749702955377742 0.031243225291028614 
0.21875000000000000 0.0000000000000000 0.0000000000000000 -4.1433919611772187e-06 -8.0178652487217289e-06 0.83221347262829370 2.5452912160991256e-07 0.0000000000000000 0.21875000000000000 0.0000000000000000 0.21874585660803883 -8.0178652487217289e-06 
0.21875000000000000 0.031250000000000000 0.0000000000000000 -3.3611112665294044e-06 -7.6468659091851338e-06 0.85423974504387090 2.7287777296833332e-07 -4.5558482910865719e-08 0.21875000000000000 0.031250000000000000 0.21874663888873344 0.031242353134090819 
0.25000000000000000 0.0000000000000000 0.0000000000000000 -4.4981512819443284e-06 -8.8476301456788115e-06 0.75636329249465606 2.3049382054558753e-07 0.0000000000000000 0.25000000000000000 0.0000000000000000 0.24999550184871802 -8.8476301456788115e-06 
0.25000000000000000 0.031250000000000000 0.0000000000000000 -3.7170200353836455e-06 -8.5091227808673800e-06 0.77464609872068957 2.4081070236201590e-07 -3.0464146554802684e-08 0.25000000000000000 0.031250000000000000 0.24999628297996465 0.031241490877219131 
0.28125000000000000 0.0000000000000000 0.0000000000000000 -4.8226662237662510e-06 -9.6745147661916182e-06 0.68730333994218940 2.1383271157404380e-07 0.0000000000000000 0.28125000000000000 0.0000000000000000 0.28124517733377624 -9.6745147661916182e-06 
0.28125000000000000 0.031250000000000000 0.0000000000000000 -4.0412138398431699e-06 -9.3660572491899093e-06 0.70340233931769391 2.1867854346027271e-07 -2.2741143239211561e-08 0.28125000000000000 0.031250000000000000 0.28124595878616016 0.031240633942750812 
0.31250000000000000 0.0000000000000000 0.0000000000000000 -5.1184268184401569e-06 -1.0500278447137925e-05 0.62317694045965599 2.0116291848620009e-07 0.0000000000000000 0.31250000000000000 0.0000000000000000 0.31249488157318156 -1.0500278447137925e-05 
0.31250000000000000 0.031250000000000000 0.0000000000000000 -4.3359860813608092e-06 -1.0220037176511295e-05 0.63806372418906920 2.0225670085491780e-07 -1.9841152256920728e-08 0.31250000000000000 0.031250000000000000 0.31249566401391865 0.031239779962823486 
0.34375000000000000 0.0000000000000000 0.0000000000000000 -5.3866522303954206e-06 -1.1325581929854116e-05 0.56294137510696340 1.9067734421378814e-07 0.0000000000000000 0.34375000000000000 0.0000000000000000 0.34374461334776968 -1.1325581929854116e-05 
0.34375000000000000 0.031250000000000000 0.0000000000000000 -4.6031577945672997e-06 -1.1072066528046977e-05 0.57723535971468865 1.8918753037716554e-07 -2.0161679456275436e-08 0.34375000000000000 0.031250000000000000 0.34374539684220545 0.031238927933471949 
0.37500000000000000 0.0000000000000000 0.0000000000000000 -5.6284344540421357e-06 -1.2150367529643010e-05 0.50600760942382006 1.8135573357860528e-07 0.0000000000000000 0.37500000000000000 0.0000000000000000 0.37499437156554594 -1.2150367529643010e-05 
0.37500000000000000 0.031250000000000000 0.0000000000000000 -4.8442570886233973e-06 -1.1922277587095630e-05 0.52010522983930985 1.7809964239336889e-07 -2.2637396372362377e-08 0.37500000000000000 0.031250000000000000 0.37499515574291137 0.031238077722412907 
0.40625000000000000 0.0000000000000000 0.0000000000000000 -5.8448192954191057e-06 -1.2974102348397005e-05 0.45205182032200814 1.7259766863417879e-07 0.0000000000000000 0.40625000000000000 0.0000000000000000 0.40624415518070456 -1.2974102348397005e-05 
0.40625000000000000 0.031250000000000000 0.0000000000000000 -5.0606363563072651e-06 -1.2770235575210021e-05 0.46620130420515410 1.6816162065384217e-07 -2.6529185421582616e-08 0.40625000000000000 0.031250000000000000 0.40624493936364375 0.031237229764424789 
0.43750000000000000 0.0000000000000000 0.0000000000000000 -6.0368534155594821e-06 -1.3795941220007702e-05 0.40091146381400106 1.6403698139406764e-07 0.0000000000000000 0.43750000000000000 0.0000000000000000 0.43749396314658445 -1.3795941220007702e-05 
0.43750000000000000 0.031250000000000000 0.0000000000000000 -5.2535492194576042e-06 -1.3615136784660007e-05 0.41525829575800377 1.5885198141892268e-07 -3.1304151963044689e-08 0.43750000000000000 0.031250000000000000 0.43749474645078051 0.031236384863215338 
0.46875000000000000 0.0000000000000000 0.0000000000000000 -6.2056123479322245e-06 -1.4614840072610534e-05 0.35252525572846971 1.5544347069728478e-07 0.0000000000000000 0.46875000000000000 0.0000000000000000 0.46874379438765207 -1.4614840072610534e-05 
0.46875000000000000 0.031250000000000000 0.0000000000000000 -5.4242013414234193e-06 -1.4455942818424320e-05 0.36714089585725312 1.4983503484187042e-07 -3.6564584796430792e-08 0.46875000000000000 0.031250000000000000 0.46874457579865858 0.031235544057181572 
0.50000000000000000 0.0000000000000000 0.0000000000000000 -6.3522176478735536e-06 -1.5429637497758335e-05 0.30689719745601268 1.4666812021243325e-07 0.0000000000000000 0.50000000000000000 0.0000000000000000 0.49999364778235211 -1.5429637497758335e-05 
0.50000000000000000 0.031250000000000000 0.0000000000000000 -5.5737842336376479e-06 -1.5291474846176485e-05 0.32179763496114361 1.4089022384812223e-07 -4.2002905805814241e-08 0.50000000000000000 0.031250000000000000 0.49999442621576634 0.031234708525153820 
0.53125000000000000 0.0000000000000000 0.0000000000000000 -6.4778478654191046e-06 -1.6239115476864570e-05 0.26407437052909910 1.3761123465206502e-07 0.0000000000000000 0.53125000000000000 0.0000000000000000 0.53124352215213455 -1.6239115476864570e-05 
0.53125000000000000 0.031250000000000000 0.0000000000000000 -5.7034979857127404e-06 -1.6120482137174248e-05 0.27923214155727599 1.3187047061157029e-07 -4.7371299427105968e-08 0.53125000000000000 0.031250000000000000 0.53124429650201421 0.031233879517862825 
0.56250000000000000 0.0000000000000000 0.0000000000000000 -6.5837461560152376e-06 -1.7042046412260046e-05 0.22413284092344388 1.2820351329422389e-07 0.0000000000000000 0.56250000000000000 0.0000000000000000 0.56249341625384397 -1.7042046412260046e-05 
0.56250000000000000 0.031250000000000000 0.0000000000000000 -5.8145667883182332e-06 -1.6941693910382065e-05 0.23948461726249914 1.2267719067362199e-07 -5.2459973242160998e-08 0.56250000000000000 0.031250000000000000 0.56249418543321184 0.031233058306089617 
0.59375000000000000 0.0000000000000000 0.0000000000000000 -6.6712262615922074e-06 -1.7837231433668784e-05 0.18716831130237396 1.1839507586174372e-07 0.0000000000000000 0.59375000000000000 0.0000000000000000 0.59374332877373837 -1.7837231433668784e-05 
0.59375000000000000 0.031250000000000000 0.0000000000000000 -5.9082497654456025e-06 -1.7753860625833177e-05 0.20261934913939231 1.1324561894489457e-07 -5.7080651827037773e-08 0.59375000000000000 0.031250000000000000 0.59374409175023457 0.031232246139374167 
0.62500000000000000 0.0000000000000000 0.0000000000000000 -6.7416779147301241e-06 -1.8623533700896188e-05 0.15328931447940713 1.0814998824695102e-07 0.0000000000000000 0.62500000000000000 0.0000000000000000 0.62499325832208530 -1.8623533700896188e-05 
0.62500000000000000 0.031250000000000000 0.0000000000000000 -5.9858487148312127e-06 -1.8555789199243856e-05 0.16871560985077641 1.0353715192690481e-07 -6.1053353268248883e-08 0.62500000000000000 0.031250000000000000 0.62499401415128519 0.031231444210800759 
0.65625000000000000 0.0000000000000000 0.0000000000000000 -6.7965722323692618e-06 -1.9399909737343507e-05 0.12261129163166291 9.7445338766184134e-08 0.0000000000000000 0.65625000000000000 0.0000000000000000 0.65624320342776765 -1.9399909737343507e-05 
0.65625000000000000 0.031250000000000000 0.0000000000000000 -6.0487136998418805e-06 -1.9346375733789677e-05 0.13786006835912082 9.3537123165238481e-08 -6.4195374163867517e-08 0.65625000000000000 0.031250000000000000 0.65624395128630020 0.031230653624266209 
0.68750000000000000 0.0000000000000000 0.0000000000000000 -6.8374672448120957e-06 -2.0165441514700025e-05 0.095250092892323779 8.6274566861484055e-08 0.0000000000000000 0.68750000000000000 0.0000000000000000 0.68749316253275516 -2.0165441514700025e-05 
0.68750000000000000 0.031250000000000000 0.0000000000000000 -6.0982469324358111e-06 -2.0124638960024297e-05 0.11013918806208010 8.3257310004450935e-08 -6.6312068775275215e-08 0.68750000000000000 0.031250000000000000 0.68749390175306757 0.031229875361039976 
0.71875000000000000 0.0000000000000000 0.0000000000000000 -6.8660132508952558e-06 -2.0919371966647541e-05 0.071313420931574001 7.4656605084780945e-08 0.0000000000000000 0.71875000000000000 0.0000000000000000 0.71874313398674905 -2.0919371966647541e-05 
0.71875000000000000 0.031250000000000000 0.0000000000000000 -6.1359049632488272e-06 -2.0889757518722791e-05 0.085630213124511301 7.2743531018906211e-08 -6.7189684878638473e-08 0.71875000000000000 0.031250000000000000 0.71874386409503677 0.031229110242481272 
0.75000000000000000 0.0000000000000000 0.0000000000000000 -6.8839570858141517e-06 -2.1661146777421507e-05 0.050888562992624488 6.2648539698970201e-08 0.0000000000000000 0.75000000000000000 0.0000000000000000 0.74999311604291419 -2.1661146777421507e-05 
0.75000000000000000 0.031250000000000000 0.0000000000000000 -6.1631988014549015e-06 -2.1641114434982278e-05 0.064389352475969150 6.2086923255484623e-08 -6.6591300656426983e-08 0.75000000000000000 0.031250000000000000 0.74999383680119858 0.031228358885565018 
0.78125000000000000 0.0000000000000000 0.0000000000000000 -6.8931434853543056e-06 -2.2390465628421803e-05 0.034024758609398714 5.0376571637675156e-08 0.0000000000000000 0.78125000000000000 0.0000000000000000 0.78124310685651466 -2.2390465628421803e-05 
0.78125000000000000 0.031250000000000000 0.0000000000000000 -6.1816911941830147e-06 -2.2378352562028893e-05 0.046435941103887990 5.1444542636349603e-08 -6.4258875445199858e-08 0.78125000000000000 0.031250000000000000 0.78124381830880585 0.031227621647437972 
0.81250000000000000 0.0000000000000000 0.0000000000000000 -6.8955102098737039e-06 -2.3107346411816937e-05 0.020708427380391251 3.8037765508853145e-08 0.0000000000000000 0.81250000000000000 0.0000000000000000 0.81249310448979017 -2.3107346411816937e-05 
0.81250000000000000 0.031250000000000000 0.0000000000000000 -6.1929898390200145e-06 -2.3101445280244403e-05 0.031731742193530872 4.1043229867351530e-08 -5.9923867230464253e-08 0.81250000000000000 0.031250000000000000 0.81249380701016094 0.031226898554719756 
0.84375000000000000 0.0000000000000000 0.0000000000000000 -6.8930711082300498e-06 -2.3812206024210870e-05 0.010831866483990435 2.6044133585718983e-08 0.0000000000000000 0.84375000000000000 0.0000000000000000 0.84374310692889176 -2.3812206024210870e-05 
0.84375000000000000 0.031250000000000000 0.0000000000000000 -6.1987347672994025e-06 -2.3810787118797299e-05 0.020156995187979500 3.1247934857393849e-08 -5.3346690814405134e-08 0.84375000000000000 0.031250000000000000 0.84374380126523274 0.031226189212881204 
0.87500000000000000 0.0000000000000000 0.0000000000000000 -6.8878764184140284e-06 -2.4505959408520436e-05 0.0041547447002141143 1.4719645398277914e-08 0.0000000000000000 0.87500000000000000 0.0000000000000000 0.87499311212358155 -2.4505959408520436e-05 
0.87500000000000000 0.031250000000000000 0.0000000000000000 -6.2005769361713808e-06 -2.4507308048428079e-05 0.011486317323470689 2.2351366374152234e-08 -4.4354842343346465e-08 0.87500000000000000 0.031250000000000000 0.87499379942306377 0.031225492691951573 
0.90625000000000000 0.0000000000000000 0.0000000000000000 -6.8819317812236778e-06 -2.5190132972856614e-05 0.00027299136206781956 5.4380160081801088e-09 0.0000000000000000 0.90625000000000000 0.0000000000000000 0.90624311806821878 -2.5190132972856614e-05 
0.90625000000000000 0.031250000000000000 0.0000000000000000 -6.2001432057285204e-06 -2.5192612094112112e-05 0.0053829178924414932 1.5223114264417355e-08 -3.3118046982037896e-08 0.90625000000000000 0.031250000000000000 0.90624379985679415 0.031224807387905892 
0.93750000000000000 0.0000000000000000 0.0000000000000000 -6.8770375495302470e-06 -2.5866960462657648e-05 -0.0014266087186230077 -2.4378594829083929e-09 0.0000000000000000 0.93750000000000000 0.0000000000000000 0.93749312296245046 -2.5866960462657648e-05 
0.93750000000000000 0.031250000000000000 0.0000000000000000 -6.1989740612709287e-06 -2.5869125390860478e-05 0.0014057015449531146 8.7798033019193122e-09 -1.9918267269771307e-08 0.93750000000000000 0.031250000000000000 0.93749380102593871 0.031224130874609134 
0.96875000000000000 0.0000000000000000 0.0000000000000000 -6.8744671299227133e-06 -2.6539353540379451e-05 -0.0018000621597087487 -4.0541949212218484e-09 0.0000000000000000 0.96875000000000000 0.0000000000000000 0.96874312553287012 -2.6539353540379451e-05 
0.96875000000000000 0.031250000000000000 0.0000000000000000 -6.1984034112127904e-06 -2.6540208708887537e-05 -0.00091544694773681697 7.7108523734033173e-09 -7.7635196975660062e-09 0.96875000000000000 0.031250000000000000 0.96874380159658890 0.031223459791291108 
1.0000000000000000 0.0000000000000000 0.0000000000000000 -6.8742288152882379e-06 -2.7210247841401406e-05 -0.0020588037752935374 0.0000000000000000 0.0000000000000000 1.0000000000000000 0.0000000000000000 0.99999312577118471 -2.7210247841401406e-05 
1.0000000000000000 0.031250000000000000 0.0000000000000000 -6.1992441756809388e-06 -2.7210028368808349e-05 -0.0017918942334692704 0.0000000000000000 3.9536834910972133e-09 1.0000000000000000 0.031250000000000000 0.99999380075582434 0.031222789971631193 
0.031250000000000000 0.062500000000000000 0.0000000000000000 -1.3432640324818379e-07 -1.1074413977541210e-06 2.0250130834826066 4.9214098804167492e-07 8.6574789976576769e-07 0.031250000000000000 0.062500000000000000 0.031249865673596753 0.062498892558602248 
0.0000000000000000 0.062500000000000000 0.0000000000000000 0.0000000000000000 0.0000000000000000 2.0356473599929843 0.0000000000000000 1.2752877105385113e-06 0.0000000000000000 0.062500000000000000 0.0000000000000000 0.062500000000000000 
0.062500000000000000 0.062500000000000000 0.0000000000000000 -4.8673588034209518e-07 -2.2840387932347332e-06 1.7728478057295602 1.0506643419061240e-06 4.2876942043046787e-07 0.062500000000000000 0.062500000000000000 0.062499513264119656 0.062497715961206769 
0.093750000000000000 0.062500000000000000 0.0000000000000000 -9.7663938415521374e-07 -3.4329931725787003e-06 1.4670569814620744 8.9926043400219610e-07 4.3839744783450715e-08 0.093750000000000000 0.062500000000000000 0.093749023360615844 0.062496567006827423 
0.12500000000000000 0.062500000000000000 0.0000000000000000 -1.4553418097698132e-06 -4.4705219643290921e-06 1.2371969009682220 5.8700602208836204e-07 -9.8074580192109804e-09 0.12500000000000000 0.062500000000000000 0.12499854465819023 0.062495529478035668 
0.15625000000000000 0.062500000000000000 0.0000000000000000 -1.9019452591549601e-06 -5.4404140377810080e-06 1.0744387296337232 4.3566605482748297e-07 6.0512896922655598e-09 0.15625000000000000 0.062500000000000000 0.15624809805474085 0.062494559585962221 
0.18750000000000000 0.062500000000000000 0.0000000000000000 -2.3133213094486150e-06 -6.3711673811690324e-06 0.95310016577487888 3.3773126103925782e-07 1.5688862048224330e-08 0.18750000000000000 0.062500000000000000 0.18749768667869057 0.062493628832618831 
0.21875000000000000 0.062500000000000000 0.0000000000000000 -2.6905899285278553e-06 -7.2792094158730636e-06 0.85618903424943149 2.8046162608434456e-07 2.2861798776295825e-08 0.21875000000000000 0.062500000000000000 0.21874730941007145 0.062492720790584121 
0.25000000000000000 0.062500000000000000 0.0000000000000000 -3.0358099161018373e-06 -8.1739798630455741e-06 0.77430343906549715 2.4357640947276806e-07 2.5165296310914910e-08 0.25000000000000000 0.062500000000000000 0.24999696419008391 0.062491826020136955 
0.28125000000000000 0.062500000000000000 0.0000000000000000 -3.3510702707057516e-06 -9.0608491012427180e-06 0.70225395438716276 2.1827646955526225e-07 2.4230091940977016e-08 0.28125000000000000 0.062500000000000000 0.28124664892972934 0.062490939150898754 
0.31250000000000000 0.062500000000000000 0.0000000000000000 -3.6382563823760139e-06 -9.9427236876265441e-06 0.63710703707542582 1.9970929075792720e-07 2.0925404108667051e-08 0.31250000000000000 0.062500000000000000 0.31249636174361761 0.062490057276312370 
0.34375000000000000 0.062500000000000000 0.0000000000000000 -3.8990300507292020e-06 -1.0820962013377697e-05 0.57714641672679234 1.8517419661950143e-07 1.5956497763556276e-08 0.34375000000000000 0.062500000000000000 0.34374610096994923 0.062489179037986620 
0.37500000000000000 0.062500000000000000 0.0000000000000000 -4.1348695778056783e-06 -1.1695923768260930e-05 0.52133995736775429 1.7310756826414446e-07 9.8394330808204001e-09 0.37500000000000000 0.062500000000000000 0.37499586513042221 0.062488304076231738 
0.40625000000000000 0.062500000000000000 0.0000000000000000 -4.3471195054280602e-06 -1.2567315148402222e-05 0.46905772110752825 1.6255794754184596e-07 2.9689952901338973e-09 0.40625000000000000 0.062500000000000000 0.40624565288049458 0.062487432684851595 
0.43750000000000000 0.062500000000000000 0.0000000000000000 -4.5370344646416287e-06 -1.3434414743424136e-05 0.41991630213346776 1.5292525246498397e-07 -4.3417247740113989e-09 0.43750000000000000 0.062500000000000000 0.43749546296553538 0.062486565585256566 
0.46875000000000000 0.062500000000000000 0.0000000000000000 -4.7058137347110528e-06 -1.4296226564253781e-05 0.37368864527206092 1.4382029014354100e-07 -1.1836633922619877e-08 0.46875000000000000 0.062500000000000000 0.46874529418626532 0.062485703773435756 
0.50000000000000000 0.062500000000000000 0.0000000000000000 -4.8546271260475274e-06 -1.5151586995925553e-05 0.33024931337100144 1.3498603696104799e-07 -1.9299498711666838e-08 0.50000000000000000 0.062500000000000000 0.49999514537287393 0.062484848413004064 
0.53125000000000000 0.062500000000000000 0.0000000000000000 -4.9846338558518993e-06 -1.5999241913900916e-05 0.28953981320460104 1.2625174940938767e-07 -2.6541256341879251e-08 0.53125000000000000 0.062500000000000000 0.53124501536614410 0.062484000758086099 
0.56250000000000000 0.062500000000000000 0.0000000000000000 -5.0969961138947999e-06 -1.6837904349127009e-05 0.25154566636314568 1.1750556363894306e-07 -3.3389792041873275e-08 0.56250000000000000 0.062500000000000000 0.56249490300388605 0.062483162095650864 
0.59375000000000000 0.062500000000000000 0.0000000000000000 -5.1928887317530222e-06 -1.7666299749658695e-05 0.21628044061998664 1.0867831275182099e-07 -3.9681224168531004e-08 0.59375000000000000 0.062500000000000000 0.59374480711126820 0.062482333700250338 
0.62500000000000000 0.062500000000000000 0.0000000000000000 -5.2735060340115705e-06 -1.8483203968345959e-05 0.18377376905268480 9.9734748965968296e-08 -4.5252244875127156e-08 0.62500000000000000 0.062500000000000000 0.62499472649396604 0.062481516796031651 
0.65625000000000000 0.062500000000000000 0.0000000000000000 -5.3400666565716846e-06 -1.9287478033818927e-05 0.15406133132083674 9.0670210971540026e-08 -4.9933398981444565e-08 0.65625000000000000 0.062500000000000000 0.65624465993334347 0.062480712521966179 
0.68750000000000000 0.062500000000000000 0.0000000000000000 -5.3938168983301972e-06 -2.0078103228346257e-05 0.12717526542621235 8.1511581217771718e-08 -5.3543520518184316e-08 0.68750000000000000 0.062500000000000000 0.68749460618310165 0.062479921896771651 
0.71875000000000000 0.062500000000000000 0.0000000000000000 -5.4360330477249673e-06 -2.0854219831172929e-05 0.10313375564445748 7.2322469986562512e-08 -5.5885857873529004e-08 0.71875000000000000 0.062500000000000000 0.71874456396695230 0.062479145780168825 
0.75000000000000000 0.062500000000000000 0.0000000000000000 -5.4680231158157157e-06 -2.1615172985470419e-05 0.081928751819411685 6.3209714894741208e-08 -5.6747179395523669e-08 0.75000000000000000 0.062500000000000000 0.74999453197688404 0.062478384827014531 
0.78125000000000000 0.062500000000000000 0.0000000000000000 -5.4911285477301468e-06 -2.2360569428067957e-05 0.063511285481201815 5.4338058929763607e-08 -5.5901292738440715e-08 0.78125000000000000 0.062500000000000000 0.78124450887145225 0.062477639430571934 
0.81250000000000000 0.062500000000000000 0.0000000000000000 -5.5067267585227811e-06 -2.3090349151842354e-05 0.047774690409152831 4.5914395651746901e-08 -5.3121594822870863e-08 0.81250000000000000 0.062500000000000000 0.81249449327324152 0.062476909650848157 
0.84375000000000000 0.062500000000000000 0.0000000000000000 -5.5162357616321037e-06 -2.3804876270874100e-05 0.034539786102046645 3.8259789956294184e-08 -4.8204932685082390e-08 0.84375000000000000 0.062500000000000000 0.84374448376423838 0.062476195123729129 
0.87500000000000000 0.062500000000000000 0.0000000000000000 -5.5211219940691665e-06 -2.4505052793881422e-05 0.023548658863980207 3.1458520773858853e-08 -4.1022609136702767e-08 0.87500000000000000 0.062500000000000000 0.87499447887800585 0.062475494947206119 
0.90625000000000000 0.062500000000000000 0.0000000000000000 -5.5229117467921962e-06 -2.5192457610741349e-05 0.014498086763552733 2.6315607594002907e-08 -3.1627876900819060e-08 0.90625000000000000 0.062500000000000000 0.90624447708825329 0.062474807542389259 
0.93750000000000000 0.062500000000000000 0.0000000000000000 -5.5231980728621124e-06 -2.5869507021769122e-05 0.0071181408182125821 2.0258219937703740e-08 -2.0347680265968986e-08 0.93750000000000000 0.062500000000000000 0.93749447680192699 0.062474130492978230 
0.96875000000000000 0.062500000000000000 0.0000000000000000 -5.5236260181024707e-06 -2.6539634973628928e-05 0.0014407798191612097 1.9824290572861851e-08 -8.8807058870337478e-09 0.96875000000000000 0.062500000000000000 0.96874447637398198 0.062473460365026372 
1.0000000000000000 0.062500000000000000 0.0000000000000000 -5.5257709540650589e-06 -2.7207485667192469e-05 -0.0013840815336584767 0.0000000000000000 2.2053176091936320e-09 1.0000000000000000 0.062500000000000000 0.99999447422904597 0.062472792514332805 
0.031250000000000000 0.093750000000000000 0.0000000000000000 -8.2650393873577635e-08 -9.1448412004490649e-07 1.7451425877356401 2.7523185114164948e-07 8.1064160530694786e-07 0.031250000000000000 0.093750000000000000 0.031249917349606127 0.093749085515879960 
0.0000000000000000 0.093750000000000000 0.0000000000000000 0.0000000000000000 0.0000000000000000 1.7253618999310811 0.0000000000000000 9.6976161121070537e-07 0.0000000000000000 0.093750000000000000 0.0000000000000000 0.093750000000000000 
0.062500000000000000 0.093750000000000000 0.0000000000000000 -2.9965979078268105e-07 -1.9343799895828499e-06 1.6165607930625627 5.7260386986875700e-07 5.9951218740675262e-07 0.062500000000000000 0.093750000000000000 0.062499700340209220 0.093748065620010423 
0.093750000000000000 0.093750000000000000 0.0000000000000000 -6.2747229826077563e-07 -2.9939586927346729e-06 1.4214694229608182 6.6726056257971732e-07 2.6155301349334214e-07 0.093750000000000000 0.093750000000000000 0.093749372527701755 0.093747006041307271 
0.12500000000000000 0.093750000000000000 0.0000000000000000 -1.0154457199274325e-06 -4.0351041407200872e-06 1.2249239380072636 5.6289118852853104e-07 1.0064699723062536e-07 0.12500000000000000 0.093750000000000000 0.12499898455428006 0.093745964895859277 
0.15625000000000000 0.093750000000000000 0.0000000000000000 -1.4053726181391259e-06 -5.0301651700085214e-06 1.0669703341563099 4.3708369544193023e-07 6.1797643124398882e-08 0.15625000000000000 0.093750000000000000 0.15624859462738186 0.093744969834829994 
0.18750000000000000 0.093750000000000000 0.0000000000000000 -1.7782530899308375e-06 -5.9908207377378932e-06 0.94456139245585946 3.4226249976430907e-07 5.1583216924445593e-08 0.18750000000000000 0.093750000000000000 0.18749822174691008 0.093744009179262275 
0.21875000000000000 0.093750000000000000 0.0000000000000000 -2.1275069048640028e-06 -6.9289132482382505e-06 0.84648167730111945 2.8266220589961741e-07 4.9366769502587003e-08 0.21875000000000000 0.093750000000000000 0.21874787249309513 0.093743071086751742 
0.25000000000000000 0.093750000000000000 0.0000000000000000 -2.4511865342277201e-06 -7.8525943023370419e-06 0.76434140265499451 2.4252619820184013e-07 4.6260531104632695e-08 0.25000000000000000 0.093750000000000000 0.24999754881346578 0.093742147405697654 
0.28125000000000000 0.093750000000000000 0.0000000000000000 -2.7491936773317329e-06 -8.7669340984878873e-06 0.69290968819819909 2.1476560625944157e-07 4.1808308496815567e-08 0.28125000000000000 0.093750000000000000 0.28124725080632268 0.093741233065901527 
0.31250000000000000 0.093750000000000000 0.0000000000000000 -3.0221758105915036e-06 -9.6748392320721428e-06 0.62904809915922366 1.9437943702011742e-07 3.5879650698040879e-08 0.31250000000000000 0.093750000000000000 0.31249697782418945 0.093740325160767926 
0.34375000000000000 0.093750000000000000 0.0000000000000000 -3.2710727987078715e-06 -1.0577747262025460e-05 0.57085118564070081 1.7856497436695823e-07 2.8841723381469969e-08 0.34375000000000000 0.093750000000000000 0.34374672892720132 0.093739422252737972 
0.37500000000000000 0.093750000000000000 0.0000000000000000 -3.4969283886842349e-06 -1.1476103124724111e-05 0.51713725596656757 1.6563926983127632e-07 2.1018243984120222e-08 0.37500000000000000 0.093750000000000000 0.37499650307161131 0.093738523896875273 
0.40625000000000000 0.093750000000000000 0.0000000000000000 -3.7008143926267437e-06 -1.2369682225883779e-05 0.46715934735259662 1.5456401775989355e-07 1.2698832685618578e-08 0.40625000000000000 0.093750000000000000 0.40624629918560734 0.093737630317774115 
0.43750000000000000 0.093750000000000000 0.0000000000000000 -3.8838031142941814e-06 -1.3257812187476030e-05 0.42044052781688901 1.4467775336914746e-07 4.1298518603320470e-09 0.43750000000000000 0.093750000000000000 0.43749611619688572 0.093736742187812527 
0.46875000000000000 0.093750000000000000 0.0000000000000000 -4.0469600961636862e-06 -1.4139527783707900e-05 0.37667682640710304 1.3554771896551115e-07 -4.4766071412371694e-09 0.46875000000000000 0.093750000000000000 0.46874595303990391 0.093735860472216284 
0.50000000000000000 0.093750000000000000 0.0000000000000000 -4.1913449130991645e-06 -1.5013681402629910e-05 0.33567755944333005 1.2688651490730037e-07 -1.2934243063757753e-08 0.50000000000000000 0.093750000000000000 0.49999580865508692 0.093734986318597377 