# For a description of the Tecplot format see the Tecplot User's guide.
#
Variables=x,y,z,s_u,s_v,s_p,x,y,ref_u,ref_v,u,v
Zone f=fepoint, n=9409, e=18432, et=quadrilateral, c=black
0.00000 0.00000 0.00000 0.0000000000000000 0.0000000000000000 3.6992777596741440 0.0000000000000000 0.0000000000000000 0.0000000000000000 0.0000000000000000 0.0000000000000000 0.0000000000000000 
0.010416666666666666 0.0000000000000000 0.0000000000000000 -5.5929848963691924e-07 -1.1942350133995533e-06 3.2138672646726967 8.7040056846782310e-06 0.0000000000000000 0.010416666666666666 0.0000000000000000 0.010416107368177030 -1.1942350133995533e-06 
0.010416666666666666 0.010416666666666666 0.0000000000000000 -1.5130850561178331e-07 -7.7550385356077459e-07 3.2919090719165158 6.1521369431138419e-06 2.3108947366139923e-06 0.010416666666666666 0.010416666666666666 0.010416515358161056 0.010415891162813105 
0.0000000000000000 0.010416666666666666 0.0000000000000000 0.0000000000000000 0.0000000000000000 3.4708294513112286 0.0000000000000000 4.8101530419872079e-06 0.0000000000000000 0.010416666666666666 0.0000000000000000 0.010416666666666666 
0.020833333333333332 0.0000000000000000 0.0000000000000000 -9.1473839995438364e-07 -1.8566809515607320e-06 2.6447628957727853 6.0151964094437339e-06 0.0000000000000000 0.020833333333333332 0.0000000000000000 0.020832418594933379 -1.8566809515607320e-06 
0.020833333333333332 0.010416666666666666 0.0000000000000000 -4.9669711918097724e-07 -1.5143663432335838e-06 2.7688204639659362 4.1471289768928555e-06 -7.8551282120941117e-07 0.020833333333333332 0.010416666666666666 0.020832836636214155 0.010415152300323431 
0.031250000000000000 0.0000000000000000 0.0000000000000000 -1.1974042574452965e-06 -2.3709126341299974e-06 2.2119106781715030 3.6021312950477124e-06 0.0000000000000000 0.031250000000000000 0.0000000000000000 0.031248802595742555 -2.3709126341299974e-06 
0.031250000000000000 0.010416666666666666 0.0000000000000000 -7.9791522432248670e-07 -2.0799911013888752e-06 2.3321471172752948 3.4278226201655106e-06 -7.1926226131120366e-07 0.031250000000000000 0.010416666666666666 0.031249202084775673 0.010414586675565276 
0.041666666666666664 0.0000000000000000 0.0000000000000000 -1.4433516169722495e-06 -2.8139941687807798e-06 1.9173288148900312 2.3907947302170575e-06 0.0000000000000000 0.041666666666666664 0.0000000000000000 0.041665223315049689 -2.8139941687807798e-06 
0.041666666666666664 0.010416666666666666 0.0000000000000000 -1.0657714179819450e-06 -2.5567018654304108e-06 2.0146122690066055 2.5252863919486168e-06 -8.5228133703741084e-07 0.041666666666666664 0.010416666666666666 0.041665600895248685 0.010414109964801235 
0.052083333333333336 0.0000000000000000 0.0000000000000000 -1.6671777923053975e-06 -3.2139116183685545e-06 1.7115521044364266 1.6651294698973200e-06 0.0000000000000000 0.052083333333333336 0.0000000000000000 0.052081666155541030 -3.2139116183685545e-06 
0.052083333333333336 0.010416666666666666 0.0000000000000000 -1.3094696498893291e-06 -2.9799538244565360e-06 1.7871417348714715 1.8407210792295973e-06 -7.0667442318156661e-07 0.052083333333333336 0.010416666666666666 0.052082023863683442 0.010413686712842209 
0.062500000000000000 0.0000000000000000 0.0000000000000000 -1.8759447954323789e-06 -3.5847614982022717e-06 1.5625783318460114 1.2137691065889974e-06 0.0000000000000000 0.062500000000000000 0.0000000000000000 0.062498124055204572 -3.5847614982022717e-06 
0.062500000000000000 0.010416666666666666 0.0000000000000000 -1.5349087824661341e-06 -3.3679412632552918e-06 1.6211959514963274 1.3668970212796849e-06 -5.8183342106205245e-07 0.062500000000000000 0.010416666666666666 0.062498465091217537 0.010413298725403411 
0.072916666666666671 0.0000000000000000 0.0000000000000000 -2.0734268417844518e-06 -3.9347848295632684e-06 1.4503476162137645 9.2670022463027936e-07 0.0000000000000000 0.072916666666666671 0.0000000000000000 0.072914593239824882 -3.9347848295632684e-06 
0.072916666666666671 0.010416666666666666 0.0000000000000000 -1.7459812532747311e-06 -3.7311990230115797e-06 1.4964097655489510 1.0510728393392960e-06 -4.6914607412961646e-07 0.072916666666666671 0.010416666666666666 0.072914920685413401 0.010412935467643656 
0.083333333333333329 0.0000000000000000 0.0000000000000000 -2.2618465985249685e-06 -4.2692778827028577e-06 1.3623403659633784 7.3878363082204869e-07 0.0000000000000000 0.083333333333333329 0.0000000000000000 0.083331071486734798 -4.2692778827028577e-06 
0.083333333333333329 0.010416666666666666 0.0000000000000000 -1.9453724386700694e-06 -4.0763606083910657e-06 1.3991735417907627 8.3581110811940260e-07 -3.7854394656590850e-07 0.083333333333333329 0.010416666666666666 0.083331387960894662 0.010412590306058275 
0.093750000000000000 0.0000000000000000 0.0000000000000000 -2.4426236138042871e-06 -4.5918654356565574e-06 1.2907210713346906 6.1134044107564367e-07 0.0000000000000000 0.093750000000000000 0.0000000000000000 0.093747557376386195 -4.5918654356565574e-06 
0.093750000000000000 0.010416666666666666 0.0000000000000000 -2.1349915732127312e-06 -4.4078616114057724e-06 1.3207128070892862 6.8645898886568207e-07 -3.0649283945062181e-07 0.093750000000000000 0.010416666666666666 0.093747865008426787 0.010412258805055261 
0.10416666666666667 0.0000000000000000 0.0000000000000000 -2.6167275860995630e-06 -4.9051467222382269e-06 1.2305196757832275 5.2192018158413454e-07 0.0000000000000000 0.10416666666666667 0.0000000000000000 0.10416404993908057 -4.9051467222382269e-06 
0.10416666666666667 0.010416666666666666 0.0000000000000000 -2.3162327572407679e-06 -4.7288117510969915e-06 1.2553606727728106 5.8033484854389073e-07 -2.4946324214628663e-07 0.10416666666666667 0.010416666666666666 0.10416435043390941 0.010411937854915567 
0.11458333333333333 0.0000000000000000 0.0000000000000000 -2.7848567899443338e-06 -5.2110518408337478e-06 1.1785146508847275 4.5712771410761854e-07 0.0000000000000000 0.11458333333333333 0.0000000000000000 0.11458054847654338 -5.2110518408337478e-06 
0.11458333333333333 0.010416666666666666 0.0000000000000000 -2.4901374789647276e-06 -5.0414744647248997e-06 1.1994080160661886 5.0296584663784046e-07 -2.0405149118858306e-07 0.11458333333333333 0.010416666666666666 0.11458084319585436 0.010411625192201941 
0.12500000000000000 0.0000000000000000 0.0000000000000000 -2.9475346486906512e-06 -5.5110532385723466e-06 1.1325629901869068 4.0878881625585100e-07 0.0000000000000000 0.12500000000000000 0.0000000000000000 0.12499705246535131 -5.5110532385723466e-06 
0.12500000000000000 0.010416666666666666 0.0000000000000000 -2.6574995264101708e-06 -5.3475475270326050e-06 1.1503775497528954 4.4513928011797899e-07 -1.6758278455402242e-07 0.12500000000000000 0.010416666666666666 0.12499734250047358 0.010411319119139633 
0.13541666666666666 0.0000000000000000 0.0000000000000000 -3.1051655797970382e-06 -5.8062980630641128e-06 1.0911991127286802 3.7178872196985954e-07 0.0000000000000000 0.13541666666666666 0.0000000000000000 0.13541356150108685 -5.8062980630641128e-06 
0.13541666666666666 0.010416666666666666 0.0000000000000000 -2.8189347679105835e-06 -5.6483352840179548e-06 1.1065742845587307 4.0091263333242642e-07 -1.3803520662630864e-07 0.13541666666666666 0.010416666666666666 0.13541384773189871 0.010411018331382650 
0.14583333333333334 0.0000000000000000 0.0000000000000000 -3.2580694011092385e-06 -6.0976948364934979e-06 1.0533927588179914 3.4283305419642357e-07 0.0000000000000000 0.14583333333333334 0.0000000000000000 0.14583007526393224 -6.0976948364934979e-06 
0.14583333333333334 0.010416666666666666 0.0000000000000000 -2.9749287752009530e-06 -5.9448590499558975e-06 1.0668086804745747 3.6637992910755199e-07 -1.1390136077028531e-07 0.14583333333333334 0.010416666666666666 0.14583035840455813 0.010410721807616709 
0.15625000000000000 0.0000000000000000 0.0000000000000000 -3.4065037519031854e-06 -6.3859723941733579e-06 1.0184007267376136 3.1973575018964964e-07 0.0000000000000000 0.15625000000000000 0.0000000000000000 0.15624659349624809 -6.3859723941733579e-06 
0.15625000000000000 0.010416666666666666 0.0000000000000000 -3.1258700435384439e-06 -6.2379305866352245e-06 1.0302250108386761 3.3891684787166045e-07 -9.4055967246278857e-08 0.15625000000000000 0.010416666666666666 0.15624687412995650 0.010410428736080031 
0.16666666666666666 0.0000000000000000 0.0000000000000000 -3.5506794076775591e-06 -6.6717212704579681e-06 0.98567425987766699 3.0100316368527331e-07 0.0000000000000000 0.16666666666666666 0.0000000000000000 0.16666311598725897 -6.6717212704579681e-06 
0.16666666666666666 0.010416666666666666 0.0000000000000000 -3.2720736231102139e-06 -6.5282026787638952e-06 0.99619342961560309 3.1671828363656099e-07 -7.7650928439817492e-08 0.16666666666666666 0.010416666666666666 0.16666339459304355 0.010410138463987903 
0.17708333333333334 0.0000000000000000 0.0000000000000000 -3.6907711446183932e-06 -6.9554235658272685e-06 0.95479983710578553 2.8558628218794212e-07 0.0000000000000000 0.17708333333333334 0.0000000000000000 0.17707964256218869 -6.9554235658272685e-06 
0.17708333333333334 0.010416666666666666 0.0000000000000000 -3.4137982303961865e-06 -6.8162049842380556e-06 0.96424077963540622 2.9851318308084188e-07 -6.4038868468773013e-08 0.17708333333333334 0.010416666666666666 0.17707991953510294 0.010409850461682428 
0.18750000000000000 0.0000000000000000 0.0000000000000000 -3.8269256800983987e-06 -7.2374750136907541e-06 0.92546035867102516 2.7272969521048317e-07 0.0000000000000000 0.18750000000000000 0.0000000000000000 0.18749617307431990 -7.2374750136907541e-06 
0.18750000000000000 0.010416666666666666 0.0000000000000000 -3.5512588418078728e-06 -7.1023701083660804e-06 0.93400523880864039 2.8338637765367686e-07 -5.2718769409460438e-08 0.18750000000000000 0.010416666666666666 0.18749644874115820 0.010409564296558300 
0.19791666666666666 0.0000000000000000 0.0000000000000000 -3.9592676137014437e-06 -7.5182016183133920e-06 0.89740904678312228 2.6187719053651304e-07 0.0000000000000000 0.19791666666666666 0.0000000000000000 0.19791270739905295 -7.5182016183133920e-06 
0.19791666666666666 0.010416666666666666 0.0000000000000000 -3.6846361028185859e-06 -7.3870529970128567e-06 0.90520588191148710 2.7066526602700426e-07 -4.3297602151933233e-08 0.19791666666666666 0.010416666666666666 0.19791298203056384 0.010409279613669652 
0.20833333333333334 0.0000000000000000 0.0000000000000000 -4.0879039560836079e-06 -7.7978724229359549e-06 0.87045145756093711 2.5261117581435977e-07 0.0000000000000000 0.20833333333333334 0.0000000000000000 0.20832924542937725 -7.7978724229359549e-06 
0.20833333333333334 0.010416666666666666 0.0000000000000000 -3.8140834563608379e-06 -7.6705456444119346e-06 0.87762176524163882 2.5984627452592908e-07 -3.5463116296830171e-08 0.20833333333333334 0.010416666666666666 0.20832951924987694 0.010408996121022253 
0.21875000000000000 0.0000000000000000 0.0000000000000000 -4.2129276344253994e-06 -8.0767094611428864e-06 0.84443279369860269 2.4461277665358187e-07 0.0000000000000000 0.21875000000000000 0.0000000000000000 0.21874578707236558 -8.0767094611428864e-06 
0.21875000000000000 0.010416666666666666 0.0000000000000000 -3.9397326132907959e-06 -7.9530884392773010e-06 0.85107722672911656 2.5054610226547217e-07 -2.8964339439638981e-08 0.21875000000000000 0.010416666666666666 0.21874606026738672 0.010408713578227390 
0.22916666666666666 0.0000000000000000 0.0000000000000000 -4.3344202406947636e-06 -8.3548956199760739e-06 0.81922876499187292 2.3763488784222896e-07 0.0000000000000000 0.22916666666666666 0.0000000000000000 0.22916233224642593 -8.3548956199760739e-06 
0.22916666666666666 0.010416666666666666 0.0000000000000000 -4.0616978006988099e-06 -8.2348790497998577e-06 0.82543133568391502 2.4246869710537059e-07 -2.3597413816455110e-08 0.22916666666666666 0.010416666666666666 0.22916260496886595 0.010408431787616869 
0.23958333333333334 0.0000000000000000 0.0000000000000000 -4.4524542101097584e-06 -8.6325809295711678e-06 0.79473887854319447 2.3148354437204305e-07 0.0000000000000000 0.23958333333333334 0.0000000000000000 0.23957888087912324 -8.6325809295711678e-06 
0.23958333333333334 0.010416666666666666 0.0000000000000000 -4.1800790973951856e-06 -8.5160794745233532e-06 0.80057017516563500 2.3538241869611538e-07 -1.9195161606357925e-08 0.23958333333333334 0.010416666666666666 0.23957915325423595 0.010408150587192145 
0.25000000000000000 0.0000000000000000 0.0000000000000000 -4.5670945646559627e-06 -8.9098876499834430e-06 0.77088142875238219 2.2600476843521524e-07 0.0000000000000000 0.25000000000000000 0.0000000000000000 0.24999543290543536 -8.9098876499834430e-06 
0.25000000000000000 0.010416666666666666 0.0000000000000000 -4.2949650791462153e-06 -8.7968217046784837e-06 0.77640109906070831 2.2910393584560158e-07 -1.5619288375617070e-08 0.25000000000000000 0.010416666666666666 0.24999570503492086 0.010407869844961988 
0.26041666666666669 0.0000000000000000 0.0000000000000000 -4.6784003204758778e-06 -9.1869144266121877e-06 0.74758969984009127 2.2107510492156033e-07 0.0000000000000000 0.26041666666666669 0.0000000000000000 0.26041198826634621 -9.1869144266121877e-06 
0.26041666666666669 0.010416666666666666 0.0000000000000000 -4.4064349358884275e-06 -9.0772123204776054e-06 0.75284839282661808 2.2348666686766397e-07 -1.2754479838380941e-08 0.26041666666666669 0.010416666666666666 0.26041226023173086 0.010407589454346189 
0.27083333333333331 0.0000000000000000 0.0000000000000000 -4.7864256326390748e-06 -9.4637397159518362e-06 0.72480904864295370 2.1659469499959392e-07 0.0000000000000000 0.27083333333333331 0.0000000000000000 0.27082854690770070 -9.4637397159518362e-06 
0.27083333333333331 0.010416666666666666 0.0000000000000000 -4.5145601806166577e-06 -9.3573362586305900e-06 0.72984994981135387 2.1841234450073275e-07 -1.0503877190589949e-08 0.27083333333333331 0.010416666666666666 0.27082881877315268 0.010407309330408036 
0.28125000000000000 0.0000000000000000 0.0000000000000000 -4.8912207326856385e-06 -9.7404246336356998e-06 0.70249463660986933 2.1248213029345645e-07 0.0000000000000000 0.28125000000000000 0.0000000000000000 0.28124510877926734 -9.7404246336356998e-06 
0.28125000000000000 0.010416666666666666 0.0000000000000000 -4.6194060392879749e-06 -9.6372599281936041e-06 0.70735469418429098 2.1378476902000511e-07 -8.7855702999699588e-09 0.28125000000000000 0.010416666666666666 0.28124538059396070 0.010407029406738473 
0.29166666666666669 0.0000000000000000 0.0000000000000000 -4.9928327011629359e-06 -1.0017015340650163e-05 0.68060964739781316 2.0867057810907572e-07 0.0000000000000000 0.29166666666666669 0.0000000000000000 0.29166167383396552 -1.0017015340650163e-05 
0.29166666666666669 0.010416666666666666 0.0000000000000000 -4.7210325891614899e-06 -9.9170338087039783e-06 0.68532056068927805 2.0952511943255204e-07 -7.5298522392946702e-09 0.29166666666666669 0.010416666666666666 0.29166194563407760 0.010406749632857962 
0.30208333333333331 0.0000000000000000 0.0000000000000000 -5.0913061076693958e-06 -1.0293545057058871e-05 0.65912387234722625 2.0510482815023053e-07 0.0000000000000000 0.30208333333333331 0.0000000000000000 0.30207824202722566 -1.0293545057058871e-05 
0.30208333333333331 0.010416666666666666 0.0000000000000000 -4.8194956969813866e-06 -1.0196694633117313e-05 0.66371289508827924 2.0556839103376842e-07 -6.6770500977371145e-09 0.30208333333333331 0.010416666666666666 0.30207851383763634 0.010406469972033551 
0.31250000000000000 0.0000000000000000 0.0000000000000000 -5.1866835436844822e-06 -1.0570035772814375e-05 0.63801257789061150 2.0173901662152827e-07 0.0000000000000000 0.31250000000000000 0.0000000000000000 0.31249481331645629 -1.0570035772814375e-05 
0.31250000000000000 0.010416666666666666 0.0000000000000000 -4.9148477965875885e-06 -1.0476267234851636e-05 0.64250317619655650 2.0186065848218548e-07 -6.1757967229017698e-09 0.31250000000000000 0.010416666666666666 0.31249508515220342 0.010406190399431815 
0.32291666666666669 0.0000000000000000 0.0000000000000000 -5.2790060680164818e-06 -1.0846499710348366e-05 0.61725559131951402 1.9853485450006196e-07 0.0000000000000000 0.32291666666666669 0.0000000000000000 0.32291138766059868 -1.0846499710348366e-05 
0.32291666666666669 0.010416666666666666 0.0000000000000000 -5.0071385367195976e-06 -1.0755766120893585e-05 0.62166798639942700 1.9835695151950962e-07 -5.9816431389884151e-09 0.32291666666666669 0.010416666666666666 0.32291165952812989 0.010405910900545772 
0.33333333333333331 0.0000000000000000 0.0000000000000000 -5.3683135805593056e-06 -1.1122940582301561e-05 0.59683655732294472 1.9546023532076514e-07 0.0000000000000000 0.33333333333333331 0.0000000000000000 0.33332796501975276 -1.1122940582301561e-05 
0.33333333333333331 0.010416666666666666 0.0000000000000000 -5.0964153231370870e-06 -1.1035196819809159e-05 0.60118817605892394 1.9501959055384539e-07 -6.0559365082526141e-09 0.33333333333333331 0.010416666666666666 0.33332823691801017 0.010405631469846856 
0.34375000000000000 0.0000000000000000 0.0000000000000000 -5.4546451368756259e-06 -1.1399354679047317e-05 0.57674232929266411 1.9248813154491093e-07 0.0000000000000000 0.34375000000000000 0.0000000000000000 0.34374454535486315 -1.1399354679047317e-05 
0.34375000000000000 0.010416666666666666 0.0000000000000000 -5.1827237741324806e-06 -1.1314557043489523e-05 0.58104818059670416 1.9181687103114343e-07 -6.3649067461284749e-09 0.34375000000000000 0.010416666666666666 0.34374481727622586 0.010405352109623177 
0.35416666666666669 0.0000000000000000 0.0000000000000000 -5.5380392136706163e-06 -1.1675731813912455e-05 0.55696246788352288 1.8959571249521777e-07 0.0000000000000000 0.35416666666666669 0.0000000000000000 0.35416112862745303 -1.1675731813912455e-05 
0.35416666666666669 0.010416666666666666 0.0000000000000000 -5.2661081046402604e-06 -1.1593837693746340e-05 0.56123545882537507 1.8872201491476931e-07 -6.8789182812821629e-09 0.35416666666666669 0.010416666666666666 0.35416140055856205 0.010405072828972919 
0.36458333333333331 0.0000000000000000 0.0000000000000000 -5.6185339333102612e-06 -1.1952056148723835e-05 0.53748882561418021 1.8676363385076250e-07 0.0000000000000000 0.36458333333333331 0.0000000000000000 0.36457771479939999 -1.1952056148723835e-05 
0.36458333333333331 0.010416666666666666 0.0000000000000000 -5.3466114511556880e-06 -1.1873023738874661e-05 0.54174002833959689 1.8571232853765992e-07 -7.5718534105648380e-09 0.36458333333333331 0.010416666666666666 0.36457798672188219 0.010404793642927792 
0.37500000000000000 0.0000000000000000 0.0000000000000000 -5.6961672540393944e-06 -1.2228306918154898e-05 0.51831520100993822 1.8397546111883751e-07 0.0000000000000000 0.37500000000000000 0.0000000000000000 0.37499430383274596 -1.2228306918154898e-05 
0.37500000000000000 0.010416666666666666 0.0000000000000000 -5.4242761473444949e-06 -1.2152094980603033e-05 0.52255407918981689 1.8276852123060456e-07 -8.4206011463172257e-09 0.37500000000000000 0.010416666666666666 0.37499457572385264 0.010404514571686063 
0.38541666666666669 0.0000000000000000 0.0000000000000000 -5.7709771313701657e-06 -1.2504459068052426e-05 0.49943704935423439 1.8121719851137783e-07 0.0000000000000000 0.38541666666666669 0.0000000000000000 0.38541089568953529 -1.2504459068052426e-05 
0.38541666666666669 0.010416666666666666 0.0000000000000000 -5.4991439583953611e-06 -1.2431026728143053e-05 0.50367165114410983 1.7987415020432679e-07 -9.4046311330683618e-09 0.38541666666666669 0.010416666666666666 0.38541116752270826 0.010404235639938524 
0.39583333333333331 0.0000000000000000 0.0000000000000000 -5.8430016551693731e-06 -1.2780483820295950e-05 0.48085123983355399 1.7847690137450768e-07 0.0000000000000000 0.39583333333333331 0.0000000000000000 0.39582749033167813 -1.2780483820295950e-05 
0.39583333333333331 0.010416666666666666 0.0000000000000000 -5.5712562807201450e-06 -1.2709790393105666e-05 0.48508836295117425 1.7701516529204480e-07 -1.0505636502771884e-08 0.39583333333333331 0.010416666666666666 0.39582776207705267 0.010403956876273560 
0.40625000000000000 0.0000000000000000 0.0000000000000000 -5.9122791662180120e-06 -1.3056349174631998e-05 0.46255585094899726 1.7574435532635232e-07 0.0000000000000000 0.40625000000000000 0.0000000000000000 0.40624408772083376 -1.3056349174631998e-05 
0.40625000000000000 0.010416666666666666 0.0000000000000000 -5.6406543124552568e-06 -1.2988354016696824e-05 0.46680118440195661 1.7417953325100462e-07 -1.1707232884284870e-08 0.40625000000000000 0.010416666666666666 0.40624435934568753 0.010403678312649970 
0.41666666666666669 0.0000000000000000 0.0000000000000000 -5.9788483554076723e-06 -1.3332020356222207e-05 0.44454999768425596 1.7301080899464970e-07 0.0000000000000000 0.41666666666666669 0.0000000000000000 0.41666068781831128 -1.3332020356222207e-05 
0.41666666666666669 0.010416666666666666 0.0000000000000000 -5.7073791992943857e-06 -1.3266682738711598e-05 0.44880824382996032 1.7135692587445517e-07 -1.2994703343889528e-08 0.41666666666666669 0.010416666666666666 0.41666095928746744 0.010403399983927954 
0.42708333333333331 0.0000000000000000 0.0000000000000000 -6.0427483482440431e-06 -1.3607460216262980e-05 0.42683368517996789 1.7026875013538408e-07 0.0000000000000000 0.42708333333333331 0.0000000000000000 0.42707729058498506 -1.3607460216262980e-05 
0.42708333333333331 0.010416666666666666 0.0000000000000000 -5.7714721594382329e-06 -1.3544739216315970e-05 0.43110866512510437 1.6853845962852684e-07 -1.4354781062009211e-08 0.42708333333333331 0.010416666666666666 0.42707756186117379 0.010403121927450352 
0.43750000000000000 0.0000000000000000 0.0000000000000000 -6.1040187769239315e-06 -1.3882629591908093e-05 0.40940768465235583 1.6751171707396509e-07 0.0000000000000000 0.43750000000000000 0.0000000000000000 0.43749389598122307 -1.3882629591908093e-05 
0.43750000000000000 0.010416666666666666 0.0000000000000000 -5.8329745908422720e-06 -1.3822483999362082e-05 0.41370242945933194 1.6571647715760947e-07 -1.5775463118070341e-08 0.43750000000000000 0.010416666666666666 0.43749416702540916 0.010402844182667305 
0.44791666666666669 0.0000000000000000 0.0000000000000000 -6.1626998419200582e-06 -1.4157487630803526e-05 0.39227342807410820 1.6473413909637101e-07 0.0000000000000000 0.44791666666666669 0.0000000000000000 0.44791050396682475 -1.4157487630803526e-05 
0.44791666666666669 0.010416666666666666 0.0000000000000000 -5.8919281634496500e-06 -1.4099875867967956e-05 0.39659025780803331 1.6288436303003397e-07 -1.7245850016114083e-08 0.44791666666666669 0.010416666666666666 0.44791077473850321 0.010402566790798698 
0.45833333333333331 0.0000000000000000 0.0000000000000000 -6.2188323647326654e-06 -1.4431992084786656e-05 0.37543291875363122 1.6193120074992018e-07 0.0000000000000000 0.45833333333333331 0.0000000000000000 0.45832711450096858 -1.4431992084786656e-05 
0.45833333333333331 0.010416666666666666 0.0000000000000000 -5.9483748986900861e-06 -1.4376872137261987e-05 0.37977351105291923 1.6003638767404184e-07 -1.8756006561128607e-08 0.45833333333333331 0.010416666666666666 0.45832738495843461 0.010402289794529404 
0.46875000000000000 0.0000000000000000 0.0000000000000000 -6.2724578332378201e-06 -1.4706099576677515e-05 0.35888865544224396 1.5909872596045881e-07 0.0000000000000000 0.46875000000000000 0.0000000000000000 0.46874372754216670 -1.4706099576677515e-05 
0.46875000000000000 0.010416666666666666 0.0000000000000000 -6.0023572381895478e-06 -1.4653428933508949e-05 0.36325410501094507 1.5716757466256409e-07 -2.0296840506247652e-08 0.46875000000000000 0.010416666666666666 0.46874399764276181 0.010402013237733156 
0.47916666666666669 0.0000000000000000 0.0000000000000000 -6.3236184408696079e-06 -1.4979765843572812e-05 0.34264356799396767 1.5623307876942195e-07 0.0000000000000000 0.47916666666666669 0.0000000000000000 0.47916034304822580 -1.4979765843572812e-05 
0.47916666666666669 0.010416666666666666 0.0000000000000000 -6.0539181033555360e-06 -1.4929501445270188e-05 0.34703443818151408 1.5427358747342011e-07 -2.1859995997824089e-08 0.47916666666666669 0.010416666666666666 0.47916061274856331 0.010401737165221395 
0.48958333333333331 0.0000000000000000 0.0000000000000000 -6.3723571207107162e-06 -1.5252945959626153e-05 0.32670096291937828 1.5333107804375360e-07 0.0000000000000000 0.48958333333333331 0.0000000000000000 0.48957696097621262 -1.5252945959626153e-05 
0.48958333333333331 0.010416666666666666 0.0000000000000000 -6.1031009472679074e-06 -1.5205044152785096e-05 0.33111733036298013 1.5135063261447394e-07 -2.3437759387109691e-08 0.48958333333333331 0.010416666666666666 0.48957723023238603 0.010401461622513881 
0.50000000000000000 0.0000000000000000 0.0000000000000000 -6.4187175754271443e-06 -1.5525594540942467e-05 0.31106447743175214 1.5038992405098808e-07 0.0000000000000000 0.50000000000000000 0.0000000000000000 0.49999358128242455 -1.5525594540942467e-05 
0.50000000000000000 0.010416666666666666 0.0000000000000000 -6.1499498001069307e-06 -1.5480011038374812e-05 0.31550597057936525 1.4839537658615557e-07 -2.5022975363744691e-08 0.50000000000000000 0.010416666666666666 0.49999385005019992 0.010401186655628293 
0.51041666666666663 0.0000000000000000 0.0000000000000000 -6.4627443038634860e-06 -1.5797665934919020e-05 0.29573804079020977 1.4740713520104206e-07 0.0000000000000000 0.51041666666666663 0.0000000000000000 0.51041020392236280 -1.5797665934919020e-05 
0.51041666666666663 0.010416666666666666 0.0000000000000000 -6.1945093091814662e-06 -1.5754355780348516e-05 0.30020387299218143 1.4540487466059050e-07 -2.6608971711722624e-08 0.51041666666666663 0.010416666666666666 0.51041047215735746 0.010400912310886317 
0.52083333333333337 0.0000000000000000 0.0000000000000000 -6.5044826250119018e-06 -1.6069114396121205e-05 0.28072584191172401 1.4438049356486106e-07 0.0000000000000000 0.52083333333333337 0.0000000000000000 0.52082682885070841 -1.6069114396121205e-05 
0.52083333333333337 0.010416666666666666 0.0000000000000000 -6.2368247744752401e-06 -1.6028031932628257e-05 0.28521483966121858 1.4237650982804474e-07 -2.8189491258871182e-08 0.52083333333333337 0.010416666666666666 0.52082709650855896 0.010400638634734038 
0.53125000000000000 0.0000000000000000 0.0000000000000000 -6.5439786999773967e-06 -1.6339894250577157e-05 0.26603230235885439 1.4130799806165667e-07 0.0000000000000000 0.53125000000000000 0.0000000000000000 0.53124345602130008 -1.6339894250577157e-05 
0.53125000000000000 0.010416666666666666 0.0000000000000000 -6.2769421805038492e-06 -1.6300993092087785e-05 0.27054292917115119 1.3930794058264857e-07 -2.9758629808268964e-08 0.53125000000000000 0.010416666666666666 0.53124372305781964 0.010400365673574578 
0.54166666666666663 0.0000000000000000 0.0000000000000000 -6.5812795524817148e-06 -1.6609960050208131e-05 0.25166205391830604 1.3818782442152506e-07 0.0000000000000000 0.54166666666666663 0.0000000000000000 0.54166008538711419 -1.6609960050208131e-05 
0.54166666666666663 0.010416666666666666 0.0000000000000000 -6.3149082251652087e-06 -1.6573193055420637e-05 0.25619243026372102 1.3619705649471415e-07 -3.1310779031117946e-08 0.54166666666666663 0.010416666666666666 0.54166035175844141 0.010400093473611245 
0.55208333333333337 0.0000000000000000 0.0000000000000000 -6.6164330883763753e-06 -1.6879266718972902e-05 0.23761992007233132 1.3501829119961686e-07 0.0000000000000000 0.55208333333333337 0.0000000000000000 0.55207671690024496 -1.6879266718972902e-05 
0.55208333333333337 0.010416666666666666 0.0000000000000000 -6.3507703461691136e-06 -1.6844585967203389e-05 0.24216783971383893 1.3304194070611192e-07 -3.2840573428456193e-08 0.55208333333333337 0.010416666666666666 0.55207698256298710 0.010399822080699462 
0.56250000000000000 0.0000000000000000 0.0000000000000000 -6.6494881145698892e-06 -1.7147769692192828e-05 0.22391090073181452 1.3179783132896366e-07 0.0000000000000000 0.56250000000000000 0.0000000000000000 0.56249335051188543 -1.7147769692192828e-05 
0.56250000000000000 0.010416666666666666 0.0000000000000000 -6.3845767455443394e-06 -1.7115126460700460e-05 0.22847384376572510 1.2984083870057100e-07 -3.4342840609368526e-08 0.56250000000000000 0.010416666666666666 0.56249361542325449 0.010399551540205965 
0.57291666666666663 0.0000000000000000 0.0000000000000000 -6.6804943577136638e-06 -1.7415425050433850e-05 0.21054015965212711 1.2852496874504495e-07 0.0000000000000000 0.57291666666666663 0.0000000000000000 0.57290998617230893 -1.7415425050433850e-05 
0.57291666666666663 0.010416666666666666 0.0000000000000000 -6.4163764126423556e-06 -1.7384769792859873e-05 0.21511530250462260 1.2659213284744995e-07 -3.5812554230455160e-08 0.57291666666666663 0.010416666666666666 0.57291025029025400 0.010399281896873806 
0.58333333333333337 0.0000000000000000 0.0000000000000000 -6.7095024829342902e-06 -1.7682189649251277e-05 0.19751301399015045 1.2519829984369882e-07 0.0000000000000000 0.58333333333333337 0.0000000000000000 0.58332662383085043 -1.7682189649251277e-05 
0.58333333333333337 0.010416666666666666 0.0000000000000000 -6.4462191459832745e-06 -1.7653471974874668e-05 0.20209723658476877 1.2329432234111496e-07 -3.7244788990990312e-08 0.58333333333333337 0.010416666666666666 0.58332688711418734 0.010399013194691791 
0.59375000000000000 0.0000000000000000 0.0000000000000000 -6.7365641128451630e-06 -1.7948021246049836e-05 0.18483492548492955 1.2181647955657333e-07 0.0000000000000000 0.59375000000000000 0.0000000000000000 0.59374326343588713 -1.7948021246049836e-05 
0.59375000000000000 0.010416666666666666 0.0000000000000000 -6.4741555742202326e-06 -1.7921189899628269e-05 0.18942481576443301 1.1994600832747009e-07 -3.8634677205907715e-08 0.59375000000000000 0.010416666666666666 0.59374352584442580 0.010398745476767038 
0.60416666666666663 0.0000000000000000 0.0000000000000000 -6.7617318470167255e-06 -1.8212878625273944e-05 0.17251149275745339 1.1837821198804809e-07 0.0000000000000000 0.60416666666666663 0.0000000000000000 0.60415990493481964 -1.8212878625273944e-05 