# For a description of the Tecplot format see the Tecplot User's guide.
#
Variables=x,y,z,s_u,s_v,s_p,x,y,ref_u,ref_v,u,v
Zone f=fepoint, n=4225, e=8192, et=quadrilateral, c=black
0.00000 0.00000 0.00000 0.0000000000000000 0.0000000000000000 3.3431539124111533 0.0000000000000000 0.0000000000000000 0.0000000000000000 0.0000000000000000 0.0000000000000000 0.0000000000000000 
0.015625000000000000 0.0000000000000000 0.0000000000000000 -6.9667389534941750e-07 -1.5104298238388693e-06 2.7992974872954677 7.5151972276994864e-06 0.0000000000000000 0.015625000000000000 0.0000000000000000 0.015624303326104651 -1.5104298238388693e-06 
0.015625000000000000 0.015625000000000000 0.0000000000000000 -1.8126552912787984e-07 -9.7353220063783338e-07 2.9280090058285428 4.6720501417310064e-06 1.1633653450294273e-06 0.015625000000000000 0.015625000000000000 0.015624818734470872 0.015624026467799363 
0.0000000000000000 0.015625000000000000 0.0000000000000000 0.0000000000000000 0.0000000000000000 3.1058409216286660 0.0000000000000000 4.3252623901176165e-06 0.0000000000000000 0.015625000000000000 0.0000000000000000 0.015625000000000000 
0.031250000000000000 0.0000000000000000 0.0000000000000000 -1.1500432247851759e-06 -2.3355427273058666e-06 2.1765033264744145 3.1678670598974384e-06 0.0000000000000000 0.031250000000000000 0.0000000000000000 0.031248849956775213 -2.3355427273058666e-06 
0.031250000000000000 0.015625000000000000 0.0000000000000000 -6.2031846895185824e-07 -1.9019386574459028e-06 2.3560595988818664 2.9129355537699849e-06 -1.5570014694542142e-06 0.031250000000000000 0.015625000000000000 0.031249379681531048 0.015623098061342556 
0.046875000000000000 0.0000000000000000 0.0000000000000000 -1.5169537753757501e-06 -2.9822055672299432e-06 1.7936235242483483 1.8810037743298912e-06 0.0000000000000000 0.046875000000000000 0.0000000000000000 0.046873483046224622 -2.9822055672299432e-06 
0.046875000000000000 0.015625000000000000 0.0000000000000000 -1.0069598560183964e-06 -2.6138582249340399e-06 1.9274707255638130 2.1797267975081031e-06 -9.9149673193100256e-07 0.046875000000000000 0.015625000000000000 0.046873993040143981 0.015622386141775066 
0.062500000000000000 0.0000000000000000 0.0000000000000000 -1.8389348800633688e-06 -3.5465407226496687e-06 1.5557192333058871 1.2065285565617589e-06 0.0000000000000000 0.062500000000000000 0.0000000000000000 0.062498161065119934 -3.5465407226496687e-06 
0.062500000000000000 0.015625000000000000 0.0000000000000000 -1.3524600496414220e-06 -3.2198990319495683e-06 1.6493817529153108 1.3943744389200332e-06 -7.7005012223841845e-07 0.062500000000000000 0.015625000000000000 0.062498647539950360 0.015621780100968050 
0.078125000000000000 0.0000000000000000 0.0000000000000000 -2.1327552332273825e-06 -4.0629611209108580e-06 1.3960822119199854 8.2979843882403116e-07 0.0000000000000000 0.078125000000000000 0.0000000000000000 0.078122867244766775 -4.0629611209108580e-06 
0.078125000000000000 0.015625000000000000 0.0000000000000000 -1.6670089816326131e-06 -3.7652924949970834e-06 1.4630032231557502 9.7523576530249392e-07 -5.5032140966301038e-07 0.078125000000000000 0.015625000000000000 0.078123332991018368 0.015621234707505005 
0.093750000000000000 0.0000000000000000 0.0000000000000000 -2.4064649836252936e-06 -4.5484330859122587e-06 1.2809252890943332 6.1859452800423871e-07 0.0000000000000000 0.093750000000000000 0.0000000000000000 0.093747593535016369 -4.5484330859122587e-06 
0.093750000000000000 0.015625000000000000 0.0000000000000000 -1.9574176193885765e-06 -4.2724449935186112e-06 1.3304688455999309 7.2340399697003412e-07 -4.0663022614549120e-07 0.093750000000000000 0.015625000000000000 0.093748042582380606 0.015620727555006481 
0.10937500000000000 0.0000000000000000 0.0000000000000000 -2.6644197093224655e-06 -5.0127256371100796e-06 1.1921851856962837 4.9159185489989010e-07 0.0000000000000000 0.10937500000000000 0.0000000000000000 0.10937233558029068 -5.0127256371100796e-06 
0.10937500000000000 0.015625000000000000 0.0000000000000000 -2.2283308590611398e-06 -4.7539889201006209e-06 1.2301623831551678 5.6684563816511052e-07 -3.0500403037410184e-07 0.10937500000000000 0.015625000000000000 0.10937277166914094 0.015620246011079900 
0.12500000000000000 0.0000000000000000 0.0000000000000000 -2.9092025627905013e-06 -5.4620395957763338e-06 1.1199437889341042 4.1100150312603624e-07 0.0000000000000000 0.12500000000000000 0.0000000000000000 0.12499709079743720 -5.4620395957763338e-06 
0.12500000000000000 0.015625000000000000 0.0000000000000000 -2.4829777867581647e-06 -5.2177148628469897e-06 1.1499755996316383 4.6578862760225582e-07 -2.3273913517892657e-07 0.12500000000000000 0.015625000000000000 0.12499751702221325 0.015619782285137150 
0.14062500000000000 0.0000000000000000 0.0000000000000000 -3.1424612189207241e-06 -5.9005570493600469e-06 1.0585332819619919 3.5722998461893510e-07 0.0000000000000000 0.14062500000000000 0.0000000000000000 0.14062185753878109 -5.9005570493600469e-06 
0.14062500000000000 0.015625000000000000 0.0000000000000000 -2.7236513252338787e-06 -5.6687338695231559e-06 1.0829336559044564 3.9761334590814943e-07 -1.8013639412623734e-07 0.14062500000000000 0.015625000000000000 0.14062227634867477 0.015619331266130477 
0.15625000000000000 0.0000000000000000 0.0000000000000000 -3.3653114126696656e-06 -6.3312156318909864e-06 1.0045645715592693 3.1967889665893634e-07 0.0000000000000000 0.15625000000000000 0.0000000000000000 0.15624663468858732 -6.3312156318909864e-06 
0.15625000000000000 0.015625000000000000 0.0000000000000000 -2.9520138442116126e-06 -6.1105536383978100e-06 1.0248652569535264 3.4978209354035151e-07 -1.4112918451085931e-07 0.15625000000000000 0.015625000000000000 0.15624704798615577 0.015618889446361603 
0.17187500000000000 0.0000000000000000 0.0000000000000000 -3.5785466060058632e-06 -6.7561366142184291e-06 0.95591952102331135 2.9240179971128518e-07 0.0000000000000000 0.17187500000000000 0.0000000000000000 0.17187142145339399 -6.7561366142184291e-06 
0.17187500000000000 0.015625000000000000 0.0000000000000000 -3.1692953557636155e-06 -6.5456607438586122e-06 0.97317151117853429 3.1503386455167248e-07 -1.1180385584657611e-07 0.17187500000000000 0.015625000000000000 0.17187183070464426 0.015618454339256141 
0.18750000000000000 0.0000000000000000 0.0000000000000000 -3.7827545357255209e-06 -7.1768804942715872e-06 0.91121893226035489 2.7190016224090204e-07 0.0000000000000000 0.18750000000000000 0.0000000000000000 0.18749621724546428 -7.1768804942715872e-06 
0.18750000000000000 0.015625000000000000 0.0000000000000000 -3.3764246032635962e-06 -6.9758587215344008e-06 0.92616716191681048 2.8900010538326183e-07 -8.9556698899345373e-08 0.18750000000000000 0.015625000000000000 0.18749662357539673 0.015618024141278468 
0.20312500000000000 0.0000000000000000 0.0000000000000000 -3.9783859414559956e-06 -7.5946085539656795e-06 0.86953201075000697 2.5602238391037672e-07 0.0000000000000000 0.20312500000000000 0.0000000000000000 0.20312102161405854 -7.5946085539656795e-06 
0.20312500000000000 0.015625000000000000 0.0000000000000000 -3.5741171545032951e-06 -7.4024756978141394e-06 0.88271940830110418 2.6895368680130435e-07 -7.2606455803733316e-08 0.20312500000000000 0.015625000000000000 0.20312142588284551 0.015617597524302184 
0.21875000000000000 0.0000000000000000 0.0000000000000000 -4.1657972713648086e-06 -8.0101896433229175e-06 0.83021150178413461 2.4338928928749439e-07 0.0000000000000000 0.21875000000000000 0.0000000000000000 0.21874583420272864 -8.0101896433229175e-06 
0.21875000000000000 0.015625000000000000 0.0000000000000000 -3.7629355772182183e-06 -7.8264980121878621e-06 0.84204303805206770 2.5312881657799118e-07 -5.9698233404063959e-08 0.21875000000000000 0.015625000000000000 0.21874623706442278 0.015617173501987812 
0.23437500000000000 0.0000000000000000 0.0000000000000000 -4.3452784608912768e-06 -8.4242733448872431e-06 0.79279634829300549 2.3308307173528147e-07 0.0000000000000000 0.23437500000000000 0.0000000000000000 0.23437065472153909 -8.4242733448872431e-06 
0.23437500000000000 0.015625000000000000 0.0000000000000000 -3.9433312191175452e-06 -8.2486596504173495e-06 0.80357984994412268 2.4034376779227528e-07 -4.9924776069306294e-08 0.23437500000000000 0.015625000000000000 0.23437105666878089 0.015616751340349582 
0.25000000000000000 0.0000000000000000 0.0000000000000000 -4.5170717240082194e-06 -8.8373416274428131e-06 0.75695193517406090 2.2447269391819240e-07 0.0000000000000000 0.25000000000000000 0.0000000000000000 0.24999548292827600 -8.8373416274428131e-06 
0.25000000000000000 0.015625000000000000 0.0000000000000000 -4.1156736885073758e-06 -8.6695041318111200e-06 0.76692497025188666 2.2978423283424752e-07 -4.2615014711303176e-08 0.25000000000000000 0.015625000000000000 0.24999588432631148 0.015616330495868190 
0.26562500000000000 0.0000000000000000 0.0000000000000000 -4.6813846895097491e-06 -9.2497462590775051e-06 0.72243203638345443 2.1711203725444062e-07 0.0000000000000000 0.26562500000000000 0.0000000000000000 0.26562031861531049 -9.2497462590775051e-06 
0.26562500000000000 0.015625000000000000 0.0000000000000000 -4.2802719872180911e-06 -9.0894285803290482e-06 0.73178017041089982 2.2087462298330329e-07 -3.7262560643997555e-08 0.26562500000000000 0.015625000000000000 0.26562071972801277 0.015615910571419670 
0.28125000000000000 0.0000000000000000 0.0000000000000000 -4.8383998359609111e-06 -9.6617365175286362e-06 0.68905375772759003 2.1067824406960296e-07 0.0000000000000000 0.28125000000000000 0.0000000000000000 0.28124516160016405 -9.6617365175286362e-06 
0.28125000000000000 0.015625000000000000 0.0000000000000000 -4.4373898899702704e-06 -9.5087158998583674e-06 0.69792328924624891 2.1319908022189855e-07 -3.3478530573420580e-08 0.28125000000000000 0.015625000000000000 0.28124556261011002 0.015615491284100141 
0.29687500000000000 0.0000000000000000 0.0000000000000000 -4.9882814184791990e-06 -1.0073480123324951e-05 0.65668053708920715 2.0493306040634132e-07 0.0000000000000000 0.29687500000000000 0.0000000000000000 0.29687001171858152 -1.0073480123324951e-05 
0.29687500000000000 0.015625000000000000 0.0000000000000000 -4.5872572960284046e-06 -9.9275587831154647e-06 0.66518759517832826 2.0645146859206158e-07 -3.0959606053599326e-08 0.29687500000000000 0.015625000000000000 0.29687041274270398 0.015615072441216885 
0.31250000000000000 0.0000000000000000 0.0000000000000000 -5.1311806441457242e-06 -1.0485079334351101e-05 0.62521030454046278 1.9969780254080482e-07 0.0000000000000000 0.31250000000000000 0.0000000000000000 0.31249486881935584 -1.0485079334351101e-05 
0.31250000000000000 0.015625000000000000 0.0000000000000000 -4.7300787175140554e-06 -1.0346077975749576e-05 0.63344748388050265 2.0040279463195158e-07 -2.9465903130738863e-08 0.31250000000000000 0.015625000000000000 0.31249526992128246 0.015614653922024253 
0.32812500000000000 0.0000000000000000 0.0000000000000000 -5.2672395928582009e-06 -1.0896583517643351e-05 0.59456704559383200 1.9483666423232405e-07 0.0000000000000000 0.32812500000000000 0.0000000000000000 0.32811973276040712 -1.0896583517643351e-05 
0.32812500000000000 0.015625000000000000 0.0000000000000000 -4.8660397014026164e-06 -1.0764336410507926e-05 0.60260833454017171 1.9487942352777290e-07 -2.8805321374273898e-08 0.32812500000000000 0.015625000000000000 0.32812013396029860 0.015614235663589491 
0.34375000000000000 0.0000000000000000 0.0000000000000000 -5.3965942199913102e-06 -1.1307999110700828e-05 0.56469466926237866 1.9024528984910679e-07 0.0000000000000000 0.34375000000000000 0.0000000000000000 0.34374460340578000 -1.1307999110700828e-05 
0.34375000000000000 0.015625000000000000 0.0000000000000000 -4.9953117388918785e-06 -1.1182350314173939e-05 0.57259916923676979 1.8974816731452235e-07 -2.8822271152504568e-08 0.34375000000000000 0.015625000000000000 0.34374500468826114 0.015613817649685826 
0.35937500000000000 0.0000000000000000 0.0000000000000000 -5.5193766749403776e-06 -1.1719297617072167e-05 0.53555247457810717 1.8584276691880467e-07 0.0000000000000000 0.35937500000000000 0.0000000000000000 0.35936948062332502 -1.1719297617072167e-05 
0.35937500000000000 0.015625000000000000 0.0000000000000000 -5.1180560525377876e-06 -1.1600098056433432e-05 0.54336724720732343 1.8490585831604151e-07 -2.9389419655141399e-08 0.35937500000000000 0.015625000000000000 0.35936988194394748 0.015613399901943567 
0.37500000000000000 0.0000000000000000 0.0000000000000000 -5.6357171024553205e-06 -1.2130422099961728e-05 0.50711174950970317 1.8156589627243260e-07 0.0000000000000000 0.37500000000000000 0.0000000000000000 0.37499436428289751 -1.2130422099961728e-05 
0.37500000000000000 0.015625000000000000 0.0000000000000000 -5.2344265405022968e-06 -1.2017527287580520e-05 0.51487402339520327 1.8027191732373901e-07 -3.0401555651154597e-08 0.37500000000000000 0.015625000000000000 0.37499476557345951 0.015612982472712420 
0.39062500000000000 0.0000000000000000 0.0000000000000000 -5.7457450483776266e-06 -1.2541292512858710e-05 0.47935318757516060 1.7736501433671095e-07 0.0000000000000000 0.39062500000000000 0.0000000000000000 0.39061925425495164 -1.2541292512858710e-05 
0.39062500000000000 0.015625000000000000 0.0000000000000000 -5.3445720807078324e-06 -1.2434560760854135e-05 0.48709208747844496 1.7578296306144105e-07 -3.1770964844553505e-08 0.39062500000000000 0.015625000000000000 0.39061965542791927 0.015612565439239145 
0.40625000000000000 0.0000000000000000 0.0000000000000000 -5.8495905601172594e-06 -1.2951810118803961e-05 0.45226490516368772 1.7320089519261355e-07 0.0000000000000000 0.40625000000000000 0.0000000000000000 0.40624415040943990 -1.2951810118803961e-05 
0.40625000000000000 0.015625000000000000 0.0000000000000000 -5.4486383442036276e-06 -1.2851101130546633e-05 0.46000281976385254 1.7138883952404343e-07 -3.3423897355710281e-08 0.40625000000000000 0.015625000000000000 0.40624455136165577 0.015612148898869456 
0.42187500000000000 0.0000000000000000 0.0000000000000000 -5.9473850501468490e-06 -1.3361861187771387e-05 0.42584090709338218 1.6904241798596143e-07 0.0000000000000000 0.42187500000000000 0.0000000000000000 0.42186905261494984 -1.3361861187771387e-05 
0.42187500000000000 0.015625000000000000 0.0000000000000000 -5.5467692291661718e-06 -1.3267034943363736e-05 0.43359457941842178 1.6704964541037596e-07 -3.5297834615586743e-08 0.42187500000000000 0.015625000000000000 0.42186945323077080 0.015611732965056637 
0.43750000000000000 0.0000000000000000 0.0000000000000000 -6.0392619749309793e-06 -1.3771320116861269e-05 0.40007989137861072 1.6486478626106239e-07 0.0000000000000000 0.43750000000000000 0.0000000000000000 0.43749396073802505 -1.3771320116861269e-05 
0.43750000000000000 0.015625000000000000 0.0000000000000000 -5.6391079997638347e-06 -1.3682235987899178e-05 0.40786129360487994 1.6273348333416888e-07 -3.7339347878437517e-08 0.43750000000000000 0.015625000000000000 0.43749436089200028 0.015611317764012101 
0.45312500000000000 0.0000000000000000 0.0000000000000000 -6.1253573701039606e-06 -1.4180052085343384e-05 0.37498431396635240 1.6064815180226531e-07 0.0000000000000000 0.45312500000000000 0.0000000000000000 0.45311887464262995 -1.4180052085343384e-05 
0.45312500000000000 0.015625000000000000 0.0000000000000000 -5.7257981943369720e-06 -1.4096568129012012e-05 0.38280135237998630 1.5841473403635065e-07 -3.9502398861223422e-08 0.45312500000000000 0.015625000000000000 0.45311927420180570 0.015610903431870988 
0.46875000000000000 0.0000000000000000 0.0000000000000000 -6.2058102740770975e-06 -1.4587915332513489e-05 0.35055965494430325 1.5637653961035084e-07 0.0000000000000000 0.46875000000000000 0.0000000000000000 0.46874379418972595 -1.4587915332513489e-05 
0.46875000000000000 0.015625000000000000 0.0000000000000000 -5.8069843527658614e-06 -1.4509887726021966e-05 0.35841673941873692 1.5407271924998541e-07 -4.1746973585984021e-08 0.46875000000000000 0.015625000000000000 0.46874419301564724 0.015610490112273978 
0.48437500000000000 0.0000000000000000 0.0000000000000000 -6.2807630657320781e-06 -1.4994763128417364e-05 0.32681384236858202 1.5203700057018264e-07 0.0000000000000000 0.48437500000000000 0.0000000000000000 0.48436871923693420 -1.4994763128417364e-05 
0.48437500000000000 0.015625000000000000 0.0000000000000000 -5.8828126020083971e-06 -1.4922045713029955e-05 0.33471234637911224 1.4969065656990805e-07 -4.4037969141458261e-08 0.48437500000000000 0.015625000000000000 0.48436911718739800 0.015610077954286971 
0.50000000000000000 0.0000000000000000 0.0000000000000000 -6.3503617368467106e-06 -1.5400445494072321e-05 0.30375680031922087 1.4761893905563054e-07 0.0000000000000000 0.50000000000000000 0.0000000000000000 0.49999364963826315 -1.5400445494072321e-05 
0.50000000000000000 0.015625000000000000 0.0000000000000000 -5.9534311305417171e-06 -1.5332889404308514e-05 0.31169543137444511 1.4525483710028675e-07 -4.6344273525935402e-08 0.50000000000000000 0.015625000000000000 0.49999404656886953 0.015609667110595691 
0.51562500000000000 0.0000000000000000 0.0000000000000000 -6.4147561159878040e-06 -1.5804810717696629e-05 0.28140009533092081 1.4311357729761786e-07 0.0000000000000000 0.51562500000000000 0.0000000000000000 0.51561858524388404 -1.5804810717696629e-05 
0.51562500000000000 0.015625000000000000 0.0000000000000000 -6.0189905761046509e-06 -1.5742264076182402e-05 0.28937519112720278 1.4075397585237352e-07 -4.8637993453584882e-08 0.51562500000000000 0.015625000000000000 0.51561898100942394 0.015609257735923818 
0.53125000000000000 0.0000000000000000 0.0000000000000000 -6.4741000574977014e-06 -1.6207706705804248e-05 0.25975666081011234 1.3851352876952311e-07 0.0000000000000000 0.53125000000000000 0.0000000000000000 0.53124352589994250 -1.6207706705804248e-05 
0.53125000000000000 0.015625000000000000 0.0000000000000000 -6.0796443461913252e-06 -1.6150014368143214e-05 0.26776242297660674 1.3617869860789372e-07 -5.0893795767037418e-08 0.53125000000000000 0.015625000000000000 0.53124392035565382 0.015608849985631857 
0.54687500000000000 0.0000000000000000 0.0000000000000000 -6.5285516066813038e-06 -1.6608982202236709e-05 0.23884058301147762 1.3381246048123630e-07 0.0000000000000000 0.54687500000000000 0.0000000000000000 0.54686847144839335 -1.6608982202236709e-05 
0.54687500000000000 0.015625000000000000 0.0000000000000000 -6.1355488868163073e-06 -1.6555985539409112e-05 0.24686925770545018 1.3152113891033217e-07 -5.3088335964982255e-08 0.54687500000000000 0.015625000000000000 0.54686886445111316 0.015608444014460593 
0.56250000000000000 0.0000000000000000 0.0000000000000000 -6.5782731502092972e-06 -1.7008487903851059e-05 0.21866693499549514 1.2900482982939952e-07 0.0000000000000000 0.56250000000000000 0.0000000000000000 0.56249342172684980 -1.7008487903851059e-05 
0.56250000000000000 0.015625000000000000 0.0000000000000000 -6.1868639118840085e-06 -1.6960024612247546e-05 0.22670894761817714 1.2677462625527947e-07 -5.5199753184212119e-08 0.56250000000000000 0.015625000000000000 0.56249381313608815 0.015608039975387752 
0.57812500000000000 0.0000000000000000 0.0000000000000000 -6.6234315589689061e-06 -1.7406077498351807e-05 0.19925164698864928 1.2408568605755262e-07 0.0000000000000000 0.57812500000000000 0.0000000000000000 0.57811837656844101 -1.7406077498351807e-05 
0.57812500000000000 0.015625000000000000 0.0000000000000000 -6.2337526028444149e-06 -1.7361981429763679e-05 0.20729569676886042 1.2193345223419549e-07 -5.7207215365562754e-08 0.57812500000000000 0.015625000000000000 0.57811876624739711 0.015607638018570236 
0.59375000000000000 0.0000000000000000 0.0000000000000000 -6.6641983290177528e-06 -1.7801608647416983e-05 0.18061140289473157 1.1905053006404338e-07 0.0000000000000000 0.59375000000000000 0.0000000000000000 0.59374333580167094 -1.7801608647416983e-05 
0.59375000000000000 0.015625000000000000 0.0000000000000000 -6.2763817860455419e-06 -1.7761709653261168e-05 0.18864452192523148 1.1699270586993757e-07 -5.9090501580717311e-08 0.59375000000000000 0.015625000000000000 0.59374372361821404 0.015607238290346740 
0.60937500000000000 0.0000000000000000 0.0000000000000000 -6.7007497248473426e-06 -1.8194943936662188e-05 0.16276355346973637 1.1389522934093170e-07 0.0000000000000000 0.60937500000000000 0.0000000000000000 0.60936829925027514 -1.8194943936662188e-05 
0.60937500000000000 0.015625000000000000 0.0000000000000000 -6.3149220931740567e-06 -1.8159067722521313e-05 0.17077113390766763 1.1194817318272028e-07 -6.0829611067404977e-08 0.60937500000000000 0.015625000000000000 0.60936868507790687 0.015606840932277479 
0.62500000000000000 0.0000000000000000 0.0000000000000000 -6.7332669277656868e-06 -1.8585951812996088e-05 0.14572603693551522 1.0861598779358677e-07 0.0000000000000000 0.62500000000000000 0.0000000000000000 0.62499326673307221 -1.8585951812996088e-05 
0.62500000000000000 0.015625000000000000 0.0000000000000000 -6.3495481083023319e-06 -1.8553919801294599e-05 0.15369182944785456 1.0679629937684068e-07 -6.2404390494914951e-08 0.62500000000000000 0.015625000000000000 0.62499365045189170 0.015606446080198705 
0.64062500000000000 0.0000000000000000 0.0000000000000000 -6.7619361907909278e-06 -1.8974507529468046e-05 0.12951729758642502 1.0320937305130457e-07 0.0000000000000000 0.64062500000000000 0.0000000000000000 0.64061823806380924 -1.8974507529468046e-05 
0.64062500000000000 0.015625000000000000 0.0000000000000000 -6.3804385032382411e-06 -1.8946136729873783e-05 0.13742338371154844 1.0153421529516386e-07 -6.3794172678567951e-08 0.64062500000000000 0.015625000000000000 0.64061861956149679 0.015606053863270125 
0.65625000000000000 0.0000000000000000 0.0000000000000000 -6.7869489999311617e-06 -1.9360494117742495e-05 0.11415619221853397 9.7672407076547039e-08 0.0000000000000000 0.65625000000000000 0.0000000000000000 0.65624321305100008 -1.9360494117742495e-05 
0.65625000000000000 0.015625000000000000 0.0000000000000000 -6.4077761610108642e-06 -1.9335597006771388e-05 0.12198293312648656 9.6159833163069140e-08 -6.4977421510993211e-08 0.65625000000000000 0.015625000000000000 0.65624359222383888 0.015605664402993229 
0.67187500000000000 0.0000000000000000 0.0000000000000000 -6.8085022400205920e-06 -1.9743803408828791e-05 0.099661872923510517 9.2002729562199236e-08 0.0000000000000000 0.67187500000000000 0.0000000000000000 0.67186819149776011 -1.9743803408828791e-05 
0.67187500000000000 0.015625000000000000 0.0000000000000000 -6.4317482853264129e-06 -1.9722187822240998e-05 0.10738783711471690 9.0672020384473680e-08 -6.5931379506676191e-08 0.67187500000000000 0.015625000000000000 0.67186856825171481 0.015605277812177758 
0.68750000000000000 0.0000000000000000 0.0000000000000000 -6.8267983612772473e-06 -2.0124337123640448e-05 0.086053632834895311 8.6198848139667085e-08 0.0000000000000000 0.68750000000000000 0.0000000000000000 0.68749317320163872 -2.0124337123640448e-05 
0.68750000000000000 0.015625000000000000 0.0000000000000000 -6.4525464915892095e-06 -2.0105806167670636e-05 0.093655505677331607 8.5070864555415098e-08 -6.6631716358759825e-08 0.68750000000000000 0.015625000000000000 0.68749354745350832 0.015604894193832331 
0.70312500000000000 0.0000000000000000 0.0000000000000000 -6.8420455403006538e-06 -2.0502008056359912e-05 0.073350698640269649 8.0260495154979383e-08 0.0000000000000000 0.70312500000000000 0.0000000000000000 0.70311815795445975 -2.0502008056359912e-05 
0.70312500000000000 0.015625000000000000 0.0000000000000000 -6.4703668724806726e-06 -2.0486360046769021e-05 0.080803177406024093 7.9358048204347549e-08 -6.7052179629181722e-08 0.70312500000000000 0.015625000000000000 0.70311852963312749 0.015604513639953231 
0.71875000000000000 0.0000000000000000 0.0000000000000000 -6.8544578261461431e-06 -2.0876741375461654e-05 0.061571949865202140 7.4189118296402366e-08 0.0000000000000000 0.71875000000000000 0.0000000000000000 0.71874314554217389 -2.0876741375461654e-05 
0.71875000000000000 0.015625000000000000 0.0000000000000000 -6.4854100279795333e-06 -2.0863769817019961e-05 0.068847629248516312 7.3537358372510155e-08 -6.7164252732665982e-08 0.71875000000000000 0.015625000000000000 0.71874351458997199 0.015604136230182980 
0.73437500000000000 0.0000000000000000 0.0000000000000000 -6.8642552581322546e-06 -2.1248476069619162e-05 0.050735539813051962 6.7988542178602476e-08 0.0000000000000000 0.73437500000000000 0.0000000000000000 0.73436813574474191 -2.1248476069619162e-05 
0.73437500000000000 0.015625000000000000 0.0000000000000000 -6.4978810459100037e-06 -2.1237969693167004e-05 0.057804795039136346 6.7615364354308426e-08 -6.6936831604630827e-08 0.73437500000000000 0.015625000000000000 0.73436850211895421 0.015603762030306834 
0.75000000000000000 0.0000000000000000 0.0000000000000000 -6.8716639367849372e-06 -2.1617166568606838e-05 0.040858386262758097 6.1665851052005262e-08 0.0000000000000000 0.75000000000000000 0.0000000000000000 0.74999312833606313 -2.1617166568606838e-05 
0.75000000000000000 0.015625000000000000 0.0000000000000000 -6.5079894144021985e-06 -2.1608909448596008e-05 0.047689264205436149 6.1602306890271315e-08 -6.6335941231663859e-08 0.75000000000000000 0.015625000000000000 0.74999349201058563 0.015603391090551406 
0.76562500000000000 0.0000000000000000 0.0000000000000000 -6.8769160222600900e-06 -2.1982784572696582e-05 0.031955491197009342 5.5232559718152422e-08 0.0000000000000000 0.76562500000000000 0.0000000000000000 0.76561812308397770 -2.1982784572696582e-05 
0.76562500000000000 0.015625000000000000 0.0000000000000000 -6.5159488417728288e-06 -2.1976556355480990e-05 0.038513624975241502 5.5513253687200186e-08 -6.5324528788738094e-08 0.76562500000000000 0.015625000000000000 0.76561848405115818 0.015603023443644519 
0.78125000000000000 0.0000000000000000 0.0000000000000000 -6.8802496249286744e-06 -2.2345321127861872e-05 0.024039037612650419 4.8706161366942622e-08 0.0000000000000000 0.78125000000000000 0.0000000000000000 0.78124311975037519 -2.2345321127861872e-05 
0.78125000000000000 0.015625000000000000 0.0000000000000000 -6.5219769519619587e-06 -2.2340897410474128e-05 0.030287607762874102 4.9369588276153936e-08 -6.3862394641711783e-08 0.78125000000000000 0.015625000000000000 0.78124347802304805 0.015602659102589525 
0.79687500000000000 0.0000000000000000 0.0000000000000000 -6.8819085393892750e-06 -2.2704788988114461e-05 0.017117197788278905 4.2112166930950718e-08 0.0000000000000000 0.79687500000000000 0.0000000000000000 0.79686811809146063 -2.2704788988114461e-05 
0.79687500000000000 0.015625000000000000 0.0000000000000000 -6.5262948144200154e-06 -2.2701941899441226e-05 0.023016974511834400 4.3200908497768144e-08 -6.1906362096397115e-08 0.79687500000000000 0.015625000000000000 0.79686847370518554 0.015602298058100561 
0.81250000000000000 0.0000000000000000 0.0000000000000000 -6.8821417542302441e-06 -2.3061225309955621e-05 0.011192571871235792 3.5486776802479001e-08 0.0000000000000000 0.81250000000000000 0.0000000000000000 0.81249311785824574 -2.3061225309955621e-05 
0.81250000000000000 0.015625000000000000 0.0000000000000000 -6.5291262558115041e-06 -2.3059724361834079e-05 0.016702089752825937 3.7047409980860787e-08 -5.9410846285498204e-08 0.81250000000000000 0.015625000000000000 0.81249347087374424 0.015601940275638165 
0.82812500000000000 0.0000000000000000 0.0000000000000000 -6.8812026427185536e-06 -2.3414694726012124e-05 0.0062601609033456759 2.8880355102702684e-08 0.0000000000000000 0.82812500000000000 0.0000000000000000 0.82811811879735731 -2.3414694726012124e-05 
0.82812500000000000 0.015625000000000000 0.0000000000000000 -6.5306968866561980e-06 -2.3414308021627400e-05 0.011336102162792719 3.0962804337905068e-08 -5.6329087650095741e-08 0.82812500000000000 0.015625000000000000 0.82811846930311350 0.015601585691978373 
0.84375000000000000 0.0000000000000000 0.0000000000000000 -6.8793477000825495e-06 -2.3765292842782562e-05 0.0023047697198458599 2.2361829375355084e-08 0.0000000000000000 0.84375000000000000 0.0000000000000000 0.84374312065229995 -2.3765292842782562e-05 
0.84375000000000000 0.015625000000000000 0.0000000000000000 -6.5312327586130357e-06 -2.3765788754740873e-05 0.0069026677863812278 2.5017723280442686e-08 -5.2615433900495431e-08 0.84375000000000000 0.015625000000000000 0.84374346876724149 0.015601234211245261 
0.85937500000000000 0.0000000000000000 0.0000000000000000 -6.8768346348348501e-06 -2.4113150195598344e-05 -0.00070225195593191412 1.6024269404521579e-08 0.0000000000000000 0.85937500000000000 0.0000000000000000 0.85936812316536526 -2.4113150195598344e-05 
0.85937500000000000 0.015625000000000000 0.0000000000000000 -6.5309585470968391e-06 -2.4114299657064045e-05 0.0033731733096053870 1.9303422513132040e-08 -4.8229411553653626e-08 0.85937500000000000 0.015625000000000000 0.85936846904145281 0.015600885700342937 
0.87500000000000000 0.0000000000000000 0.0000000000000000 -6.8739195343749293e-06 -2.4458436660111012e-05 -0.0028069725476470102 9.9908506973351271e-09 0.0000000000000000 0.87500000000000000 0.0000000000000000 0.87499312608046564 -2.4458436660111012e-05 
0.87500000000000000 0.015625000000000000 0.0000000000000000 -6.5300951282777926e-06 -2.4460016250845026e-05 0.00070348884111850172 1.3934856766143148e-08 -4.3142220129679567e-08 0.87500000000000000 0.015625000000000000 0.87499346990487170 0.015600539983749157 
0.89062500000000000 0.0000000000000000 0.0000000000000000 -6.8708526943861245e-06 -2.4801366240541900e-05 -0.0040774295610156129 4.4233555136909965e-09 0.0000000000000000 0.89062500000000000 0.0000000000000000 0.89061812914730565 -2.4801366240541900e-05 
0.89062500000000000 0.015625000000000000 0.0000000000000000 -6.5288563877612155e-06 -2.4803162297856587e-05 -0.0011695377217781603 9.0528025770217580e-09 -3.7348588833399006e-08 0.89062500000000000 0.015625000000000000 0.89061847114361214 0.015600196837702142 
0.90625000000000000 0.0000000000000000 0.0000000000000000 -6.8678725008575426e-06 -2.5142201970327636e-05 -0.0046084361441947781 -4.7807643149565906e-10 0.0000000000000000 0.90625000000000000 0.0000000000000000 0.90624313212749918 -2.5142201970327636e-05 