# For a description of the Tecplot format see the Tecplot User's guide.
#
Variables=x,y,z,s_u,s_v,s_p,x,y,ref_u,ref_v,u,v
Zone f=fepoint, n=289, e=512, et=quadrilateral, c=black
0.00000 0.00000 0.00000 0.0000000000000000 0.0000000000000000 1.7895599894019774 0.0000000000000000 0.0000000000000000 0.0000000000000000 0.0000000000000000 0.0000000000000000 0.0000000000000000 
0.062500000000000000 0.0000000000000000 0.0000000000000000 -1.5809669467068339e-06 -3.2313088626342994e-06 1.4686734595950532 1.1758003869230846e-06 0.0000000000000000 0.062500000000000000 0.0000000000000000 0.062498419033053289 -3.2313088626342994e-06 
0.062500000000000000 0.062500000000000000 0.0000000000000000 -3.9106322118654344e-07 -2.0522898256207681e-06 1.5047098448713301 6.7387434455028006e-07 3.2389484302955453e-07 0.062500000000000000 0.062500000000000000 0.062499608936778812 0.062497947710174369 
0.0000000000000000 0.062500000000000000 0.0000000000000000 0.0000000000000000 0.0000000000000000 1.5702232344799993 0.0000000000000000 9.2010050867624371e-07 0.0000000000000000 0.062500000000000000 0.0000000000000000 0.062500000000000000 
0.12500000000000000 0.0000000000000000 0.0000000000000000 -2.6440644406283570e-06 -5.1428455012311374e-06 1.0894140395110636 4.3797513429961068e-07 0.0000000000000000 0.12500000000000000 0.0000000000000000 0.12499735593555937 -5.1428455012311374e-06 
0.12500000000000000 0.062500000000000000 0.0000000000000000 -1.3329290644218497e-06 -4.2101478089944568e-06 1.1659537624028753 4.4746861617779315e-07 -1.4251722942740527e-07 0.12500000000000000 0.062500000000000000 0.12499866707093558 0.062495789852191008 
0.18750000000000000 0.0000000000000000 0.0000000000000000 -3.4886732495594182e-06 -6.8120537632464032e-06 0.85272967524149312 3.1457578208408581e-07 0.0000000000000000 0.18750000000000000 0.0000000000000000 0.18749651132675046 -6.8120537632464032e-06 
0.18750000000000000 0.062500000000000000 0.0000000000000000 -2.1329529289427262e-06 -6.0538569772038578e-06 0.90519310061425939 3.4580844981537312e-07 -4.4462214606838762e-08 0.18750000000000000 0.062500000000000000 0.18749786704707105 0.062493946143022790 
0.25000000000000000 0.0000000000000000 0.0000000000000000 -4.1856023735460892e-06 -8.4145599248389817e-06 0.68751087410814649 2.3396519565987153e-07 0.0000000000000000 0.25000000000000000 0.0000000000000000 0.24999581439762644 -8.4145599248389817e-06 
0.25000000000000000 0.062500000000000000 0.0000000000000000 -2.8047955410747604e-06 -7.7895644931890321e-06 0.72457855552192163 2.4030828883757339e-07 -3.1896198309068433e-08 0.25000000000000000 0.062500000000000000 0.24999719520445893 0.062492210435506811 
0.31250000000000000 0.0000000000000000 0.0000000000000000 -4.7616238861936943e-06 -9.9969536224951457e-06 0.55893737456798775 1.9226870665475827e-07 0.0000000000000000 0.31250000000000000 0.0000000000000000 0.31249523837611382 -9.9969536224951457e-06 
0.31250000000000000 0.062500000000000000 0.0000000000000000 -3.3644681491715772e-06 -9.4830152680263203e-06 0.58895874268427983 1.9250755706084463e-07 -2.3497903387795379e-08 0.31250000000000000 0.062500000000000000 0.31249663553185081 0.062490516984731966 
0.37500000000000000 0.0000000000000000 0.0000000000000000 -5.2308460132260086e-06 -1.1570559073499590e-05 0.45167911753445722 1.6618013050023224e-07 0.0000000000000000 0.37500000000000000 0.0000000000000000 0.37499476915398677 -1.1570559073499590e-05 
0.37500000000000000 0.062500000000000000 0.0000000000000000 -3.8244889306783936e-06 -1.1153675770175500e-05 0.47910221543040993 1.6113920345168844e-07 -2.5940484771958741e-08 0.37500000000000000 0.062500000000000000 0.37499617551106934 0.062488846324229817 
0.43750000000000000 0.0000000000000000 0.0000000000000000 -5.6034985009064861e-06 -1.3133880026805262e-05 0.35911641747851758 1.4597965868198198e-07 0.0000000000000000 0.43750000000000000 0.0000000000000000 0.43749439650149907 -1.3133880026805262e-05 
0.43750000000000000 0.062500000000000000 0.0000000000000000 -4.1953475466314569e-06 -1.2803329099735013e-05 0.38592871315814237 1.3873811637621752e-07 -3.2427669788000827e-08 0.43750000000000000 0.062500000000000000 0.43749580465245336 0.062487196670900268 
0.50000000000000000 0.0000000000000000 0.0000000000000000 -5.8889163557050082e-06 -1.4680350601569979e-05 0.27851098694706639 1.2791320628881594e-07 0.0000000000000000 0.50000000000000000 0.0000000000000000 0.49999411108364428 -1.4680350601569979e-05 
0.50000000000000000 0.062500000000000000 0.0000000000000000 -4.4865504810380282e-06 -1.4426569414374486e-05 0.30535408173416467 1.2024911733196056e-07 -4.0160405494040652e-08 0.50000000000000000 0.062500000000000000 0.49999551344951904 0.062485573430585632 
0.56250000000000000 0.0000000000000000 0.0000000000000000 -6.0966578302946465e-06 -1.6201682309473555e-05 0.20884314838999318 1.1027081532438606e-07 0.0000000000000000 0.56250000000000000 0.0000000000000000 0.56249390334216975 -1.6201682309473555e-05 
0.56250000000000000 0.062500000000000000 0.0000000000000000 -4.7072352385393903e-06 -1.6015330631133486e-05 0.23561034680845572 1.0340560035996647e-07 -4.7303788855125265e-08 0.56250000000000000 0.062500000000000000 0.56249529276476151 0.062483984669368865 
0.62500000000000000 0.0000000000000000 0.0000000000000000 -6.2369627049073883e-06 -1.7689599878584011e-05 0.14982528203462669 9.2319269197297853e-08 0.0000000000000000 0.62500000000000000 0.0000000000000000 0.62499376303729515 -1.7689599878584011e-05 
0.62500000000000000 0.062500000000000000 0.0000000000000000 -4.8665218169712091e-06 -1.7561133958684104e-05 0.17595649802690891 8.7255695094470858e-08 -5.2625253741137703e-08 0.62500000000000000 0.062500000000000000 0.62499513347818303 0.062482438866041316 
0.68750000000000000 0.0000000000000000 0.0000000000000000 -6.3209782311790785e-06 -1.9136958302861555e-05 0.10142090111882120 7.4005191364429359e-08 0.0000000000000000 0.68750000000000000 0.0000000000000000 0.68749367902176883 -1.9136958302861555e-05 
0.68750000000000000 0.062500000000000000 0.0000000000000000 -4.9737231002309468e-06 -1.9056424459427714e-05 0.12604317377878702 7.1594673671127688e-08 -5.5136598768613489e-08 0.68750000000000000 0.062500000000000000 0.68749502627689985 0.062480943575540571 
0.75000000000000000 0.0000000000000000 0.0000000000000000 -6.3608981113148955e-06 -2.0538706476966309e-05 0.063572646317815715 5.5037189090372469e-08 0.0000000000000000 0.75000000000000000 0.0000000000000000 0.74999363910188865 -2.0538706476966309e-05 
0.75000000000000000 0.062500000000000000 0.0000000000000000 -5.0384890542415463e-06 -2.0495628485444137e-05 0.085575651597399549 5.6346018709724459e-08 -5.3967254119342361e-08 0.75000000000000000 0.062500000000000000 0.74999496151094569 0.062479504371514553 
0.81250000000000000 0.0000000000000000 0.0000000000000000 -6.3700148513329633e-06 -2.1892985691838396e-05 0.036019360215284783 3.7256274411885104e-08 0.0000000000000000 0.81250000000000000 0.0000000000000000 0.81249362998514874 -2.1892985691838396e-05 
0.81250000000000000 0.062500000000000000 0.0000000000000000 -5.0709285556672768e-06 -2.1876304894108813e-05 0.054134388144702984 4.2736974066921333e-08 -4.8255084342887313e-08 0.81250000000000000 0.062500000000000000 0.81249492907144438 0.062478123695105893 
0.87500000000000000 0.0000000000000000 0.0000000000000000 -6.3625312478310927e-06 -2.3202541442592159e-05 0.018132126385660769 1.7964666870325247e-08 0.0000000000000000 0.87500000000000000 0.0000000000000000 0.87499363746875203 -2.3202541442592159e-05 
0.87500000000000000 0.062500000000000000 0.0000000000000000 -5.0817202657464581e-06 -2.3200661734952036e-05 0.031124530444570669 2.8380977464003951e-08 -3.7613027991969396e-08 0.87500000000000000 0.062500000000000000 0.87499491827973419 0.062476799338265047 
0.93750000000000000 0.0000000000000000 0.0000000000000000 -6.3526167962704478e-06 -2.4476252824974648e-05 0.0086829206228679640 6.7906143391969150e-09 0.0000000000000000 0.93750000000000000 0.0000000000000000 0.93749364738320373 -2.4476252824974648e-05 
0.93750000000000000 0.062500000000000000 0.0000000000000000 -5.0821500306685729e-06 -2.4477614454930533e-05 0.015893305525693294 2.2942583898051173e-08 -2.2739423253474555e-08 0.93750000000000000 0.062500000000000000 0.93749491784996930 0.062475522385545067 
1.0000000000000000 0.0000000000000000 0.0000000000000000 -6.3501327763904973e-06 -2.5727548586288188e-05 0.0053641674994748135 0.0000000000000000 0.0000000000000000 1.0000000000000000 0.0000000000000000 0.99999364986722361 -2.5727548586288188e-05 
1.0000000000000000 0.062500000000000000 0.0000000000000000 -5.0835605025087957e-06 -2.5725099816067269e-05 0.0086955889150714359 0.0000000000000000 -6.9190072395729794e-09 1.0000000000000000 0.062500000000000000 0.99999491643949734 0.062474274900183931 
0.062500000000000000 0.12500000000000000 0.0000000000000000 -1.7853954321474648e-07 -1.6102878029800725e-06 1.2566052841803781 8.1859849368577455e-08 4.3065607735928663e-07 0.062500000000000000 0.12500000000000000 0.062499821460456788 0.12499838971219702 
0.0000000000000000 0.12500000000000000 0.0000000000000000 0.0000000000000000 0.0000000000000000 1.2218180206422822 0.0000000000000000 5.5536746131498840e-07 0.0000000000000000 0.12500000000000000 0.0000000000000000 0.12500000000000000 
0.12500000000000000 0.12500000000000000 0.0000000000000000 -6.2320316054135882e-07 -3.4569875998175169e-06 1.1022381470223921 3.6046724797883838e-07 2.4875500795966626e-07 0.12500000000000000 0.12500000000000000 0.12499937679683946 0.12499654301240017 
0.18750000000000000 0.12500000000000000 0.0000000000000000 -1.2307435139594811e-06 -5.3732832935434810e-06 0.88921205234199263 3.2965745840923703e-07 9.4150405556384238e-08 0.18750000000000000 0.12500000000000000 0.18749876925648604 0.12499462671670646 
0.25000000000000000 0.12500000000000000 0.0000000000000000 -1.7932853141037581e-06 -7.2093722573013739e-06 0.71587598411024078 2.3256802164118135e-07 5.1046043027546501e-08 0.25000000000000000 0.12500000000000000 0.24999820671468589 0.12499279062774270 
0.31250000000000000 0.12500000000000000 0.0000000000000000 -2.2811241330761218e-06 -8.9985068196205098e-06 0.58413277034853339 1.8451691898933711e-07 3.5620204109471196e-08 0.31250000000000000 0.12500000000000000 0.31249771887586691 0.12499100149318036 
0.37500000000000000 0.12500000000000000 0.0000000000000000 -2.6907504534170399e-06 -1.0756241114452519e-05 0.47956609894121405 1.5029434658623602e-07 1.9817589534787023e-08 0.37500000000000000 0.12500000000000000 0.37499730924954661 0.12498924375888555 
0.43750000000000000 0.12500000000000000 0.0000000000000000 -3.0257359130889675e-06 -1.2484311469580568e-05 0.39265957130193146 1.2777824103876501e-07 5.2192153271115223e-09 0.43750000000000000 0.12500000000000000 0.43749697426408690 0.12498751568853041 
0.50000000000000000 0.12500000000000000 0.0000000000000000 -3.2919916697093568e-06 -1.4177640682821725e-05 0.31841811829814015 1.1020326663420840e-07 -8.5937107635188033e-09 0.50000000000000000 0.12500000000000000 0.49999670800833035 0.12498582235931720 
0.56250000000000000 0.12500000000000000 0.0000000000000000 -3.4962747455464714e-06 -1.5828358562800336e-05 0.25435342516707143 9.5204185752840772e-08 -2.0774463482524183e-08 0.56250000000000000 0.12500000000000000 0.56249650372525462 0.12498417164143720 
0.62500000000000000 0.12500000000000000 0.0000000000000000 -3.6456840516586214e-06 -1.7428017223616271e-05 0.19918333832649979 8.1609048209822318e-08 -3.0683040876422261e-08 0.62500000000000000 0.12500000000000000 0.62499635431594835 0.12498257198277639 
0.68750000000000000 0.12500000000000000 0.0000000000000000 -3.7475312319313593e-06 -1.8968934815929650e-05 0.15211239313583519 6.9165380733443089e-08 -3.7710762238463984e-08 0.68750000000000000 0.12500000000000000 0.68749625246876811 0.12498103106518409 
0.75000000000000000 0.12500000000000000 0.0000000000000000 -3.8094120939912077e-06 -2.0445210163870002e-05 0.11244489000480111 5.7666177986751133e-08 -4.1317395517012422e-08 0.75000000000000000 0.12500000000000000 0.74999619058790590 0.12497955478983613 
0.81250000000000000 0.12500000000000000 0.0000000000000000 -3.8394621254421088e-06 -2.1853748970657723e-05 0.079419479726588568 4.8470949861982779e-08 -4.0890081541420456e-08 0.81250000000000000 0.12500000000000000 0.81249616053787455 0.12497814625102933 
0.87500000000000000 0.12500000000000000 0.0000000000000000 -3.8468458628033446e-06 -2.3195555472691916e-05 0.052294581004925018 3.7600807279296927e-08 -3.6441281176348225e-08 0.87500000000000000 0.12500000000000000 0.87499615315413715 0.12497680444452731 
0.93750000000000000 0.12500000000000000 0.0000000000000000 -3.8425597891645607e-06 -2.4477540622994566e-05 0.030936336721377272 3.7106738517638423e-08 -2.7474975223968096e-08 0.93750000000000000 0.12500000000000000 0.93749615744021086 0.12497552245937700 
1.0000000000000000 0.12500000000000000 0.0000000000000000 -3.8405906452079110e-06 -2.5715388782992013e-05 0.018106272616537172 0.0000000000000000 -1.8330324388141982e-08 1.0000000000000000 0.12500000000000000 0.99999615940935482 0.12497428461121701 
0.062500000000000000 0.18750000000000000 0.0000000000000000 -9.5456318059580304e-08 -1.3866650562234065e-06 0.98975661383329483 6.7791804654008807e-09 3.9856280921598421e-07 0.062500000000000000 0.18750000000000000 0.062499904543681935 0.18749861333494378 
0.0000000000000000 0.18750000000000000 0.0000000000000000 0.0000000000000000 0.0000000000000000 0.93473698034078412 0.0000000000000000 4.4645500266657185e-07 0.0000000000000000 0.18750000000000000 0.0000000000000000 0.18750000000000000 
0.12500000000000000 0.18750000000000000 0.0000000000000000 -3.2877230162931963e-07 -3.0472044751061892e-06 0.93058367527761832 1.7695867861043800e-07 3.1271113234053750e-07 0.12500000000000000 0.18750000000000000 0.12499967122769838 0.18749695279552489 
0.18750000000000000 0.18750000000000000 0.0000000000000000 -6.7947347628194386e-07 -4.8669158888645563e-06 0.80759451066587407 2.2208459021133709e-07 1.7401240373310936e-07 0.18750000000000000 0.18750000000000000 0.18749932052652371 0.18749513308411114 
0.25000000000000000 0.18750000000000000 0.0000000000000000 -1.0829975510796981e-06 -6.7361552518883262e-06 0.67198790070775571 2.0208093541533302e-07 9.4883731900304419e-08 0.25000000000000000 0.18750000000000000 0.24999891700244889 0.18749326384474810 
0.31250000000000000 0.18750000000000000 0.0000000000000000 -1.4609563516485704e-06 -8.5880293601816119e-06 0.55682347493022777 1.6371544925781695e-07 6.0498928309431626e-08 0.31250000000000000 0.18750000000000000 0.31249853904364833 0.18749141197063982 
0.37500000000000000 0.18750000000000000 0.0000000000000000 -1.7892119606828963e-06 -1.0413429178271587e-05 0.46362426377056565 1.3280208856401245e-07 3.6991282351684692e-08 0.37500000000000000 0.18750000000000000 0.37499821078803924 0.18748958657082174 
0.43750000000000000 0.18750000000000000 0.0000000000000000 -2.0614020180754141e-06 -1.2206751882086991e-05 0.38673113279177623 1.1169107903990579e-07 1.8353361386876943e-08 0.43750000000000000 0.18750000000000000 0.43749793859798197 0.18748779324811790 
0.50000000000000000 0.18750000000000000 0.0000000000000000 -2.2780796492232423e-06 -1.3960440124096195e-05 0.32167329564699437 9.5547287163689432e-08 1.6348665140901578e-09 0.50000000000000000 0.18750000000000000 0.49999772192035080 0.18748603955987589 
0.56250000000000000 0.18750000000000000 0.0000000000000000 -2.4426981879621551e-06 -1.5665716237234056e-05 0.26575110595266555 8.2572984914015733e-08 -1.3026566599190892e-08 0.56250000000000000 0.18750000000000000 0.56249755730181217 0.18748433428376277 
0.62500000000000000 0.18750000000000000 0.0000000000000000 -2.5599753533589399e-06 -1.7313751769335265e-05 0.21736137329825325 7.1522327020736550e-08 -2.5407698040752397e-08 0.62500000000000000 0.18750000000000000 0.62499744002464663 0.18748268624823064 
0.68750000000000000 0.18750000000000000 0.0000000000000000 -2.6352589152498694e-06 -1.8896578593160311e-05 0.17539712021490125 6.2116736196670841e-08 -3.5134169541857948e-08 0.68750000000000000 0.18750000000000000 0.68749736474108480 0.18748110342140681 
0.75000000000000000 0.18750000000000000 0.0000000000000000 -2.6744201964564954e-06 -2.0407814441629107e-05 0.13887052052624574 5.4125219248992684e-08 -4.1881519146164779e-08 0.75000000000000000 0.18750000000000000 0.74999732557980359 0.18747959218555835 
0.81250000000000000 0.18750000000000000 0.0000000000000000 -2.6841398384763448e-06 -2.1843363645732115e-05 0.10675653229954386 4.8859266623521605e-08 -4.5201221074065907e-08 0.81250000000000000 0.18750000000000000 0.81249731586016150 0.18747815663635428 
0.87500000000000000 0.18750000000000000 0.0000000000000000 -2.6725949089984314e-06 -2.3202240713052276e-05 0.078148387581249090 4.1748750319335132e-08 -4.5195674851914006e-08 0.87500000000000000 0.18750000000000000 0.87499732740509095 0.18747679775928694 
0.93750000000000000 0.18750000000000000 0.0000000000000000 -2.6506274790024559e-06 -2.4487676583223713e-05 0.053145804622121658 4.6152254434148322e-08 -4.0496307743773466e-08 0.93750000000000000 0.18750000000000000 0.93749734937252105 0.18747551232341678 
1.0000000000000000 0.18750000000000000 0.0000000000000000 -2.6334864213380839e-06 -2.5708909717005043e-05 0.035700504666221725 0.0000000000000000 -3.7182643871337907e-08 1.0000000000000000 0.18750000000000000 0.99999736651357862 0.18747429109028299 
0.062500000000000000 0.25000000000000000 0.0000000000000000 -5.2797918576742624e-08 -1.2716977282932166e-06 0.75990865038340794 -4.4613038388961264e-08 3.3273420322178291e-07 0.062500000000000000 0.25000000000000000 0.062499947202081414 0.24999872830227174 
0.0000000000000000 0.25000000000000000 0.0000000000000000 0.0000000000000000 0.0000000000000000 0.70093468900711631 0.0000000000000000 3.6043877027188905e-07 0.0000000000000000 0.25000000000000000 0.0000000000000000 0.25000000000000000 
0.12500000000000000 0.25000000000000000 0.0000000000000000 -1.7239981801164817e-07 -2.8211894926816597e-06 0.74311171639457252 8.4266116402224983e-08 2.9037173292124744e-07 0.12500000000000000 0.25000000000000000 0.12499982760018201 0.24999717881050731 
0.18750000000000000 0.25000000000000000 0.0000000000000000 -3.6235478539550076e-07 -4.5608433609974298e-06 0.68064032643131112 1.2288912779274575e-07 2.1901648244579681e-07 0.18750000000000000 0.25000000000000000 0.18749963764521460 0.24999543915663899 
0.25000000000000000 0.25000000000000000 0.0000000000000000 -6.0093048533277096e-07 -6.4035152735140893e-06 0.59543001089460612 1.4388196462649547e-07 1.4597348329527953e-07 0.25000000000000000 0.25000000000000000 0.24999939906951466 0.24999359648472649 
0.31250000000000000 0.25000000000000000 0.0000000000000000 -8.5073321817771966e-07 -8.2810340211749484e-06 0.50921239867391821 1.2931467394171325e-07 9.1750513426587728e-08 0.31250000000000000 0.25000000000000000 0.31249914926678185 0.24999171896597883 
0.37500000000000000 0.25000000000000000 0.0000000000000000 -1.0777847834772239e-06 -1.0150925934736756e-05 0.43385536587105505 1.0918724373180526e-07 5.8623408847523273e-08 0.37500000000000000 0.25000000000000000 0.37499892221521652 0.24998984907406527 
0.43750000000000000 0.25000000000000000 0.0000000000000000 -1.2678148699512152e-06 -1.1993732116718646e-05 0.37037620560936285 9.2130911231600435e-08 3.4415374415582324e-08 0.43750000000000000 0.25000000000000000 0.43749873218513002 0.24998800626788328 
0.50000000000000000 0.25000000000000000 0.0000000000000000 -1.4163672525773594e-06 -1.3796219556090532e-05 0.31661227461761232 7.8639049610255712e-08 1.4560356573744515e-08 0.50000000000000000 0.25000000000000000 0.49999858363274735 0.24998620378044392 
0.56250000000000000 0.25000000000000000 0.0000000000000000 -1.5236508850234020e-06 -1.5547204141414011e-05 0.27046958340276389 6.8014063524191309e-08 -2.3452907010222634e-09 0.56250000000000000 0.25000000000000000 0.56249847634911498 0.24998445279585860 
0.62500000000000000 0.25000000000000000 0.0000000000000000 -1.5920910225003612e-06 -1.7236775298254537e-05 0.23041309665475271 5.9378121287523904e-08 -1.6810794290203647e-08 0.62500000000000000 0.25000000000000000 0.62499840790897754 0.24998276322470178 
0.68750000000000000 0.25000000000000000 0.0000000000000000 -1.6252408773510641e-06 -1.8856327020639348e-05 0.19525396093784028 5.2550933043187239e-08 -2.8891654761804271e-08 0.68750000000000000 0.25000000000000000 0.68749837475912268 0.24998114367297933 
0.75000000000000000 0.25000000000000000 0.0000000000000000 -1.6274589102837680e-06 -2.0398752348863917e-05 0.16388351836556805 4.7337595246192121e-08 -3.8587076571614021e-08 0.75000000000000000 0.25000000000000000 0.74999837254108970 0.24997960124765115 
0.81250000000000000 0.25000000000000000 0.0000000000000000 -1.6041279901738287e-06 -2.1858664855057527e-05 0.13514040538668418 4.5009200278899455e-08 -4.5698418115960760e-08 0.81250000000000000 0.25000000000000000 0.81249839587200967 0.24997814133514495 
0.87500000000000000 0.25000000000000000 0.0000000000000000 -1.5623691729947045e-06 -2.3232630145386535e-05 0.10797437927857344 4.0992454795839943e-08 -5.0477580223976928e-08 0.87500000000000000 0.25000000000000000 0.87499843763082696 0.24997676736985461 
0.93750000000000000 0.25000000000000000 0.0000000000000000 -1.5122799782057453e-06 -2.4519413119449948e-05 0.082425415651237274 4.8968370497063700e-08 -5.1202637312638973e-08 0.93750000000000000 0.25000000000000000 0.93749848772002176 0.24997548058688054 
1.0000000000000000 0.25000000000000000 0.0000000000000000 -1.4686685010844701e-06 -2.5720304575109675e-05 0.062116675854324399 0.0000000000000000 -5.3018841571998536e-08 1.0000000000000000 0.25000000000000000 0.99999853133149896 0.24997427969542488 
0.062500000000000000 0.31250000000000000 0.0000000000000000 -2.7378965703068473e-08 -1.2188390100701400e-06 0.56323718703623349 -6.8294518615122436e-08 2.9143278786888487e-07 0.062500000000000000 0.31250000000000000 0.062499972621034294 0.31249878116098989 
0.0000000000000000 0.31250000000000000 0.0000000000000000 0.0000000000000000 0.0000000000000000 0.50305551145370397 0.0000000000000000 3.0785627485083744e-07 0.0000000000000000 0.31250000000000000 0.0000000000000000 0.31250000000000000 
0.12500000000000000 0.31250000000000000 0.0000000000000000 -7.7027027614388172e-08 -2.7084358963588552e-06 0.56966467315297153 3.5484744690887725e-08 2.6396378437717044e-07 0.12500000000000000 0.31250000000000000 0.12499992297297237 0.31249729156410361 
0.18750000000000000 0.31250000000000000 0.0000000000000000 -1.5987552323610806e-07 -4.3973498064073592e-06 0.54364083012896369 5.9837602837774952e-08 2.1626719757818370e-07 0.18750000000000000 0.31250000000000000 0.18749984012447676 0.31249560265019355 
0.25000000000000000 0.31250000000000000 0.0000000000000000 -2.7118382022737018e-07 -6.2124749706865548e-06 0.49827372812919396 8.2646048402607478e-08 1.6286396278300921e-07 0.25000000000000000 0.31250000000000000 0.24999972881617974 0.31249378752502932 
0.31250000000000000 0.31250000000000000 0.0000000000000000 -3.9528145591724294e-07 -8.0909721608232296e-06 0.44474598723632330 8.6105076980049188e-08 1.1310061088009543e-07 0.31250000000000000 0.31250000000000000 0.31249960471854404 0.31249190902783924 
0.37500000000000000 0.31250000000000000 0.0000000000000000 -5.1294428669921111e-07 -9.9847936708099115e-06 0.39218653057868674 7.9318496682581337e-08 7.4822345927751429e-08 0.37500000000000000 0.31250000000000000 0.37499948705571334 0.31249001520632919 
0.43750000000000000 0.31250000000000000 0.0000000000000000 -6.0911532010715095e-07 -1.1861495468687168e-05 0.34530457389693353 6.8885747297088119e-08 4.6295048662446410e-08 0.43750000000000000 0.31250000000000000 0.43749939088467987 0.31248813850453133 
0.50000000000000000 0.31250000000000000 0.0000000000000000 -6.7684264581257748e-07 -1.3700681081494773e-05 0.30477192904884642 5.9369265951000943e-08 2.3733253660729195e-08 0.50000000000000000 0.31250000000000000 0.49999932315735413 0.31248629931891853 
0.56250000000000000 0.31250000000000000 0.0000000000000000 -7.1414191093357595e-07 -1.5487674121556122e-05 0.26977697249264948 5.1502437068810585e-08 4.8863169999668466e-09 0.56250000000000000 0.31250000000000000 0.56249928585808906 0.31248451232587843 
0.62500000000000000 0.31250000000000000 0.0000000000000000 -7.2168164369724165e-07 -1.7210875070276680e-05 0.23928109393594563 4.5212866898844093e-08 -1.1286098662867754e-08 0.62500000000000000 0.31250000000000000 0.62499927831835633 0.31248278912492972 
0.68750000000000000 0.31250000000000000 0.0000000000000000 -7.0154387643471372e-07 -1.8860726488106614e-05 0.21228176818242858 4.0547994160317567e-08 -2.5254109233961416e-08 0.68750000000000000 0.31250000000000000 0.68749929845612356 0.31248113927351190 
0.75000000000000000 0.31250000000000000 0.0000000000000000 -6.5675581137843834e-07 -2.0429236286865996e-05 0.18774135997293251 3.7447352909874041e-08 -3.7316258828458194e-08 0.75000000000000000 0.31250000000000000 0.74999934324418860 0.31247957076371313 
0.81250000000000000 0.31250000000000000 0.0000000000000000 -5.9140208039538946e-07 -2.1909642227484406e-05 0.16450366046521575 3.7139242258464795e-08 -4.7519735382203483e-08 0.81250000000000000 0.31250000000000000 0.81249940859791969 0.31247809035777246 
0.87500000000000000 0.31250000000000000 0.0000000000000000 -5.1124896143815481e-07 -2.3296027127892149e-05 0.14142229601374370 3.5549493012633197e-08 -5.6241243826011888e-08 0.87500000000000000 0.31250000000000000 0.87499948875103861 0.31247670397287214 
0.93750000000000000 0.31250000000000000 0.0000000000000000 -4.2486564209593854e-07 -2.4582742362737390e-05 0.11823602071901067 4.6011383295463999e-08 -6.1506412118840146e-08 0.93750000000000000 0.31250000000000000 0.93749957513435789 0.31247541725763733 
1.0000000000000000 0.31250000000000000 0.0000000000000000 -3.4509789681005544e-07 -2.5763454853334353e-05 0.096948826389451945 0.0000000000000000 -6.7810544131483308e-08 1.0000000000000000 0.31250000000000000 0.99999965490210319 0.31247423654514667 
0.062500000000000000 0.37500000000000000 0.0000000000000000 -1.0370592657885164e-08 -1.2049688037639491e-06 0.38979354587620985 -8.6343294401407870e-08 2.6315654435426152e-07 0.062500000000000000 0.37500000000000000 0.062499989629407345 0.37499879503119621 
0.0000000000000000 0.37500000000000000 0.0000000000000000 0.0000000000000000 0.0000000000000000 0.32782884714816035 0.0000000000000000 2.7683078331568776e-07 0.0000000000000000 0.37500000000000000 0.0000000000000000 0.37500000000000000 
0.12500000000000000 0.37500000000000000 0.0000000000000000 -1.1778776895779710e-08 -2.6721977290839305e-06 0.41245092780139075 1.0664726705055381e-10 2.4015109549325502e-07 0.12500000000000000 0.37500000000000000 0.12499998822122312 0.37499732780227091 
0.18750000000000000 0.37500000000000000 0.0000000000000000 -1.6394215021090204e-08 -4.3387219504706825e-06 0.41135077838997752 1.4906416193344361e-08 2.0448405326524456e-07 0.18750000000000000 0.37500000000000000 0.18749998360578499 0.37499566127804945 
0.25000000000000000 0.37500000000000000 0.0000000000000000 -2.7525568731661418e-08 -6.1394668551218787e-06 0.39525618376676919 3.5414153388479784e-08 1.6415672503242348e-07 0.25000000000000000 0.37500000000000000 0.24999997247443126 0.37499386053314487 
0.31250000000000000 0.37500000000000000 0.0000000000000000 -4.1672346652898417e-08 -8.0163940112762839e-06 0.37024694994207658 4.3811195112228233e-08 1.2297136849683571e-07 0.31250000000000000 0.37500000000000000 0.31249995832765337 0.37499198360598873 
0.37500000000000000 0.37500000000000000 0.0000000000000000 -5.1438863971106910e-08 -9.9219148757833163e-06 0.34157375151192865 4.5925707474177236e-08 8.5959254231817265e-08 0.37500000000000000 0.37500000000000000 0.37499994856113611 0.37499007808512413 
0.43750000000000000 0.37500000000000000 0.0000000000000000 -4.8856237992161961e-08 -1.1819864338914804e-05 0.31331512513717152 4.2802526943970426e-08 5.5515684329682823e-08 0.43750000000000000 0.37500000000000000 0.43749995114376200 0.37498818013566110 
0.50000000000000000 0.37500000000000000 0.0000000000000000 -2.8260353946677453e-08 -1.3684455394339976e-05 0.28760277670614021 3.8065809932172630e-08 3.0962426972016496e-08 0.50000000000000000 0.37500000000000000 0.49999997173964600 0.37498631554460565 
0.56250000000000000 0.37500000000000000 0.0000000000000000 1.2733759071284783e-08 -1.5497607784685198e-05 0.26492200405952454 3.3402470717395548e-08 1.0518333516368760e-08 0.56250000000000000 0.37500000000000000 0.56250001273375905 0.37498450239221531 
0.62500000000000000 0.37500000000000000 0.0000000000000000 7.4310212763500778e-08 -1.7245888483662299e-05 0.24498618800356944 2.9503989764141357e-08 -7.0215455764235326e-09 0.62500000000000000 0.37500000000000000 0.62500007431021276 0.37498275411151633 
0.68750000000000000 0.37500000000000000 0.0000000000000000 1.5538401204504407e-07 -1.8918709212678657e-05 0.22720832734852170 2.6719335991546195e-08 -2.2432360485577179e-08 0.68750000000000000 0.37500000000000000 0.68750015538401199 0.37498108129078739 
0.75000000000000000 0.37500000000000000 0.0000000000000000 2.5404992521894597e-07 -2.0507229191732448e-05 0.21080337954815698 2.5203042915496980e-08 -3.6266955658994378e-08 0.75000000000000000 0.37500000000000000 0.75000025404992521 0.37497949277080828 
0.81250000000000000 0.37500000000000000 0.0000000000000000 3.6755530685271210e-07 -2.2003486580118810e-05 0.19475992343906690 2.6142711946022642e-08 -4.8814259448910835e-08 0.81250000000000000 0.37500000000000000 0.81250036755530697 0.37497799651341990 
0.87500000000000000 0.37500000000000000 0.0000000000000000 4.9182300358542566e-07 -2.3399455834261797e-05 0.17789876174235456 2.6375861309652349e-08 -6.0538621026189900e-08 0.87500000000000000 0.37500000000000000 0.87500049182300355 0.37497660054416576 