# For a description of the Tecplot format see the Tecplot User's guide.
#
Variables=x,y,z,s_u,s_v,s_p,x,y,ref_u,ref_v,u,v
Zone f=fepoint, n=289, e=512, et=quadrilateral, c=black
0.00000 0.00000 0.00000 0.0000000000000000 0.0000000000000000 5.3781196426805984 0.0000000000000000 0.0000000000000000 0.0000000000000000 0.0000000000000000 0.0000000000000000 0.0000000000000000 
0.062500000000000000 0.0000000000000000 0.0000000000000000 -7.1066333406675510e-07 -2.0898889405812020e-06 2.7230136200159776 3.7125475777309739e-06 0.0000000000000000 0.062500000000000000 0.0000000000000000 0.062499289336665931 -2.0898889405812020e-06 
0.062500000000000000 0.062500000000000000 0.0000000000000000 -1.2997183620420109e-08 -1.4344567407318203e-06 1.9672029188821616 1.6047414867495401e-06 1.5186525608469284e-06 0.062500000000000000 0.062500000000000000 0.062499987002816386 0.062498565543259270 
0.0000000000000000 0.062500000000000000 0.0000000000000000 -8.1237558289813849e-26 0.0000000000000000 1.2413658298140686 9.1147831962760173e-33 3.1852310566352764e-06 0.0000000000000000 0.062500000000000000 -8.1237558289813849e-26 0.062500000000000000 
0.12500000000000000 0.0000000000000000 0.0000000000000000 -1.3261164228670256e-06 -3.8960124052426915e-06 2.2779576961856569 2.8752029512394027e-06 0.0000000000000000 0.12500000000000000 0.0000000000000000 0.12499867388357715 -3.8960124052426915e-06 
0.12500000000000000 0.062500000000000000 0.0000000000000000 -5.8034512730347262e-07 -3.3280519178568186e-06 0.37766078410324483 -1.1967511728063318e-06 -5.7965645641074157e-07 0.12500000000000000 0.062500000000000000 0.12499941965487270 0.062496671948082151 
0.18750000000000000 0.0000000000000000 0.0000000000000000 -1.8382124441082331e-06 -5.5190589980241675e-06 1.9051251515675531 2.2462281998925878e-06 0.0000000000000000 0.18750000000000000 0.0000000000000000 0.18749816178755588 -5.5190589980241675e-06 
0.18750000000000000 0.062500000000000000 0.0000000000000000 -1.0791725069885042e-06 -5.0488651223455983e-06 0.31595608766674310 -4.9954543363650026e-07 1.0076762948646366e-07 0.18750000000000000 0.062500000000000000 0.18749892082749300 0.062494951134877665 
0.25000000000000000 0.0000000000000000 0.0000000000000000 -2.2610651206798781e-06 -7.0182747353612686e-06 1.5914862503176612 1.9700380291713158e-06 0.0000000000000000 0.25000000000000000 0.0000000000000000 0.24999773893487931 -7.0182747353612686e-06 
0.25000000000000000 0.062500000000000000 0.0000000000000000 -1.4909611098491512e-06 -6.6312048187587065e-06 0.24967995997488157 -5.1932942159532742e-07 -4.2349588651239184e-08 0.25000000000000000 0.062500000000000000 0.24999850903889012 0.062493368795181241 
0.31250000000000000 0.0000000000000000 0.0000000000000000 -2.6051512909534785e-06 -8.4288321817660069e-06 1.3196546587947451 1.7178117873290543e-06 0.0000000000000000 0.31250000000000000 0.0000000000000000 0.31249739484870903 -8.4288321817660069e-06 
0.31250000000000000 0.062500000000000000 0.0000000000000000 -1.8285352542510046e-06 -8.1150216431700826e-06 0.19442835791222826 -4.4315336971815899e-07 -1.8797388545240985e-09 0.31250000000000000 0.062500000000000000 0.31249817146474573 0.062491884978356831 
0.37500000000000000 0.0000000000000000 0.0000000000000000 -2.8800969598362149e-06 -9.7684463700855289e-06 1.0808638976489779 1.5296981459773707e-06 0.0000000000000000 0.37500000000000000 0.0000000000000000 0.37499711990304019 -9.7684463700855289e-06 
0.37500000000000000 0.062500000000000000 0.0000000000000000 -2.1006086300695101e-06 -9.5189682171292920e-06 0.14657754057311970 -4.0549560812423059e-07 -1.5603685964026016e-08 0.37500000000000000 0.062500000000000000 0.37499789939136990 0.062490481031782875 
0.43750000000000000 0.0000000000000000 0.0000000000000000 -3.0944585141798101e-06 -1.1046400725297397e-05 0.87009150334462382 1.3655248309959587e-06 0.0000000000000000 0.43750000000000000 0.0000000000000000 0.43749690554148585 -1.1046400725297397e-05 
0.43750000000000000 0.062500000000000000 0.0000000000000000 -2.3150970578842316e-06 -1.0853169844899915e-05 0.10615111957357382 -3.6968380536476648e-07 -2.1578906630552860e-08 0.43750000000000000 0.062500000000000000 0.43749768490294211 0.062489146830155100 
0.50000000000000000 0.0000000000000000 0.0000000000000000 -3.2563728628968235e-06 -1.2267253229441490e-05 0.68450095779824582 1.2172665976050369e-06 0.0000000000000000 0.50000000000000000 0.0000000000000000 0.49999674362713709 -1.2267253229441490e-05 
0.50000000000000000 0.062500000000000000 0.0000000000000000 -2.4793480861737907e-06 -1.2122571787003208e-05 0.072485412958601711 -3.3820918263425383e-07 -3.0655056869781860e-08 0.50000000000000000 0.062500000000000000 0.49999752065191388 0.062487877428212997 
0.56250000000000000 0.0000000000000000 0.0000000000000000 -3.3737204964391296e-06 -1.3433224369949649e-05 0.52253327271400229 1.0765120007705159e-06 0.0000000000000000 0.56250000000000000 0.0000000000000000 0.56249662627950359 -1.3433224369949649e-05 
0.56250000000000000 0.062500000000000000 0.0000000000000000 -2.6004199140164631e-06 -1.3329607509690901e-05 0.045234421074344798 -3.0703261573240723e-07 -3.8349665421375034e-08 0.56250000000000000 0.062500000000000000 0.56249739958008593 0.062486670392490319 
0.62500000000000000 0.0000000000000000 0.0000000000000000 -3.4542450936691682e-06 -1.4545483678309609e-05 0.38337214068778436 9.3909356914928067e-07 0.0000000000000000 0.62500000000000000 0.0000000000000000 0.62499654575490637 -1.4545483678309609e-05 
0.62500000000000000 0.062500000000000000 0.0000000000000000 -2.6852306493801122e-06 -1.4475564028690236e-05 0.024063392086875468 -2.7515505778666242e-07 -4.4813615591669765e-08 0.62500000000000000 0.062500000000000000 0.62499731476935061 0.062485524435971308 
0.68750000000000000 0.0000000000000000 0.0000000000000000 -3.5055528958546785e-06 -1.5604875859361449e-05 0.26662993184940703 8.0201574156953441e-07 0.0000000000000000 0.68750000000000000 0.0000000000000000 0.68749649444710415 -1.5604875859361449e-05 
0.68750000000000000 0.062500000000000000 0.0000000000000000 -2.7406180523327246e-06 -1.5561415582642445e-05 0.0086795899108216088 -2.4166483682211210e-07 -4.8719469304915882e-08 0.68750000000000000 0.062500000000000000 0.68749725938194761 0.062484438584417358 
0.75000000000000000 0.0000000000000000 0.0000000000000000 -3.5350074690561146e-06 -1.6612258254402445e-05 0.17214580193418919 6.6362700063671497e-07 0.0000000000000000 0.75000000000000000 0.0000000000000000 0.74999646499253092 -1.6612258254402445e-05 
0.75000000000000000 0.062500000000000000 0.0000000000000000 -2.7733108350298446e-06 -1.6588252029711060e-05 -0.0012045019114709417 -2.0636076444066087e-07 -5.2934582974809644e-08 0.75000000000000000 0.062500000000000000 0.74999722668916491 0.062483411747970286 
0.81250000000000000 0.0000000000000000 0.0000000000000000 -3.5494844884533754e-06 -1.7568505173503925e-05 0.099865170361696620 5.2150717260814793e-07 0.0000000000000000 0.81250000000000000 0.0000000000000000 0.81249645051551156 -1.7568505173503925e-05 
0.81250000000000000 0.062500000000000000 0.0000000000000000 -2.7898012207808989e-06 -1.7557466415157562e-05 -0.0058676962044607135 -1.6880522951447640e-07 -4.8478284879361704e-08 0.81250000000000000 0.062500000000000000 0.81249721019877919 0.062482442533584835 
0.87500000000000000 0.0000000000000000 0.0000000000000000 -3.5550066711224568e-06 -1.8474335615585009e-05 0.049917384007606432 3.7558251040497718e-07 0.0000000000000000 0.87500000000000000 0.0000000000000000 0.87499644499332885 -1.8474335615585009e-05 
0.87500000000000000 0.062500000000000000 0.0000000000000000 -2.7960663798613990e-06 -1.8470554151990111e-05 -0.0055870593281063669 -1.3122694795476633e-07 -6.6015474612585012e-08 0.87500000000000000 0.062500000000000000 0.87499720393362013 0.062481529445848012 
0.93750000000000000 0.0000000000000000 0.0000000000000000 -3.5561219920438986e-06 -1.9329094224492132e-05 0.019435587977218005 2.2029052072207698e-07 0.0000000000000000 0.93750000000000000 0.0000000000000000 0.93749644387800790 -1.9329094224492132e-05 
0.93750000000000000 0.062500000000000000 0.0000000000000000 -2.7972182710746105e-06 -1.9328622252898471e-05 -0.0025854478277977308 -8.9498009465657651e-08 -1.8766022471072670e-08 0.93750000000000000 0.062500000000000000 0.93749720278172888 0.062480671377747099 
1.0000000000000000 0.0000000000000000 0.0000000000000000 -3.5557734105848180e-06 -2.0138631685866794e-05 0.030833528952837436 0.0000000000000000 0.0000000000000000 1.0000000000000000 0.0000000000000000 0.99999644422658940 -2.0138631685866794e-05 
1.0000000000000000 0.062500000000000000 0.0000000000000000 -2.7968178856588557e-06 -2.0138305063002111e-05 0.010509742697093363 0.0000000000000000 -1.3233724117827812e-07 1.0000000000000000 0.062500000000000000 0.99999720318211438 0.062479861694936994 
0.062500000000000000 0.12500000000000000 0.0000000000000000 -6.6921248647542764e-09 -1.3975220776476129e-06 0.49721382642674800 -4.7846614827765218e-07 -1.2416920475906411e-06 0.062500000000000000 0.12500000000000000 0.062499993307875139 0.12499860247792237 
0.0000000000000000 0.12500000000000000 0.0000000000000000 -2.8092163513086633e-25 0.0000000000000000 0.88759267452412327 -2.9228502491897113e-22 2.9824175331103447e-06 0.0000000000000000 0.12500000000000000 -2.8092163513086633e-25 0.12500000000000000 
0.12500000000000000 0.12500000000000000 0.0000000000000000 -3.9296592766485904e-08 -2.8215658721908265e-06 1.5950686397083731 1.5552483986681160e-06 1.4735115064381189e-06 0.12500000000000000 0.12500000000000000 0.12499996070340723 0.12499717843412782 
0.18750000000000000 0.12500000000000000 0.0000000000000000 -4.7665496772026577e-07 -4.6152324446415087e-06 0.38936059831070818 6.5332125720036380e-08 -4.6937994124437672e-07 0.18750000000000000 0.12500000000000000 0.18749952334503228 0.12499538476755535 
0.25000000000000000 0.12500000000000000 0.0000000000000000 -8.5160862485417669e-07 -6.2736900860010143e-06 0.34715203242031295 2.8365221785540224e-07 -1.6912014941005559e-12 0.25000000000000000 0.12500000000000000 0.24999914839137513 0.12499372630991400 
0.31250000000000000 0.12500000000000000 0.0000000000000000 -1.1601215760182496e-06 -7.8233349773163434e-06 0.28372262113379182 1.9341478484081350e-07 -8.0749726994200240e-08 0.31250000000000000 0.12500000000000000 0.31249883987842392 0.12499217666502270 
0.37500000000000000 0.12500000000000000 0.0000000000000000 -1.4100624818559944e-06 -9.2857221909814809e-06 0.23213923749228127 1.9014953148423567e-07 -5.5621716209128255e-08 0.37500000000000000 0.12500000000000000 0.37499858993751817 0.12499071427780901 
0.43750000000000000 0.12500000000000000 0.0000000000000000 -1.6079468544341781e-06 -1.0671372383155970e-05 0.18704173808888327 1.6895497933738103e-07 -5.8186348475612071e-08 0.43750000000000000 0.12500000000000000 0.43749839205314561 0.12498932862761684 
0.50000000000000000 0.12500000000000000 0.0000000000000000 -1.7599573552843116e-06 -1.1985605503537026e-05 0.14816346972983641 1.5527828528268104e-07 -5.6657592398010140e-08 0.50000000000000000 0.12500000000000000 0.49999824004264465 0.12498801439449646 
0.56250000000000000 0.12500000000000000 0.0000000000000000 -1.8721007426535721e-06 -1.3230999576546601e-05 0.11479204043020623 1.4156545841338978e-07 -5.6671495957862669e-08 0.56250000000000000 0.12500000000000000 0.56249812789925724 0.12498676900042345 
0.62500000000000000 0.12500000000000000 0.0000000000000000 -1.9503428178361282e-06 -1.4408896399763191e-05 0.086567263790703453 1.2913272022791871e-07 -5.6194303559418662e-08 0.62500000000000000 0.12500000000000000 0.62499804965718220 0.12498559110360023 
0.68750000000000000 0.12500000000000000 0.0000000000000000 -2.0006681860428270e-06 -1.5520293617847359e-05 0.063217464234409923 1.1736013110480076e-07 -5.4515523411542743e-08 0.68750000000000000 0.12500000000000000 0.68749799933181410 0.12498447970638216 
0.75000000000000000 0.12500000000000000 0.0000000000000000 -2.0290874778173160e-06 -1.6566355212196845e-05 0.044554245717431107 1.0626369243204309e-07 -5.4307299586658888e-08 0.75000000000000000 0.12500000000000000 0.74999797091252229 0.12498343364478780 
0.81250000000000000 0.12500000000000000 0.0000000000000000 -2.0415676230322589e-06 -1.7548699150155825e-05 0.030500086174836644 9.5576497077515503e-08 -4.5417282596173697e-08 0.81250000000000000 0.12500000000000000 0.81249795843237693 0.12498245130084984 
0.87500000000000000 0.12500000000000000 0.0000000000000000 -2.0438606489991101e-06 -1.8469316899226535e-05 0.021100131531434235 8.4432522213338548e-08 -6.4766023164525618e-08 0.87500000000000000 0.12500000000000000 0.87499795613935116 0.12498153068310079 
0.93750000000000000 0.12500000000000000 0.0000000000000000 -2.0412269549273107e-06 -1.9330350452209430e-05 0.013790698827306283 8.1827190396025341e-08 8.4704017924105217e-09 0.93750000000000000 0.12500000000000000 0.93749795877304509 0.12498066964954779 
1.0000000000000000 0.12500000000000000 0.0000000000000000 -2.0375419976887650e-06 -2.0139630072254036e-05 0.037865865955547758 0.0000000000000000 -1.7264543565913032e-07 1.0000000000000000 0.12500000000000000 0.99999796245800232 0.12497986036992774 
0.062500000000000000 0.18750000000000000 0.0000000000000000 -3.9934531750046337e-10 -1.3857798977320939e-06 0.42815416851331495 1.7013744465815374e-07 -5.7658649828006801e-07 0.062500000000000000 0.18750000000000000 0.062499999600654672 0.18749861422010228 
0.0000000000000000 0.18750000000000000 0.0000000000000000 -9.0669290277679661e-25 0.0000000000000000 0.44273667485600882 1.2340923274010040e-21 2.2845726161593755e-06 0.0000000000000000 0.18750000000000000 -9.0669290277679661e-25 0.18750000000000000 
0.12500000000000000 0.18750000000000000 0.0000000000000000 -1.1918556815113111e-08 -2.7876017092212551e-06 0.41266861537314692 -3.7599752549462992e-07 6.5031097829082085e-08 0.12500000000000000 0.18750000000000000 0.12499998808144318 0.18749721239829079 
0.18750000000000000 0.18750000000000000 0.0000000000000000 -3.2368732467794291e-08 -4.2353703820002631e-06 1.2386310383111354 9.6339476326272158e-07 9.2451892249207355e-07 0.18750000000000000 0.18750000000000000 0.18749996763126753 0.18749576462961801 
0.25000000000000000 0.18750000000000000 0.0000000000000000 -3.4993909041298796e-07 -5.9556011391783091e-06 0.32510017066036889 -1.7733993789924237e-07 -3.0662654397153747e-07 0.25000000000000000 0.18750000000000000 0.24999965006090960 0.18749404439886083 
0.31250000000000000 0.18750000000000000 0.0000000000000000 -6.1593844324810422e-07 -7.5634944236209830e-06 0.29566068449672339 5.7935061310673558e-08 2.3421645302055200e-08 0.31250000000000000 0.18750000000000000 0.31249938406155670 0.18749243650557637 
0.37500000000000000 0.18750000000000000 0.0000000000000000 -8.3109900141005897e-07 -9.0775086300313013e-06 0.24042125223973318 -8.2557840624930224e-10 -5.1127144619236080e-08 0.37500000000000000 0.18750000000000000 0.37499916890099860 0.18749092249136998 
0.43750000000000000 0.18750000000000000 0.0000000000000000 -1.0007363927648730e-06 -1.0509265574967961e-05 0.19708616116545152 1.1225562796257753e-08 -3.4638644135326936e-08 0.43750000000000000 0.18750000000000000 0.43749899926360719 0.18748949073442503 
0.50000000000000000 0.18750000000000000 0.0000000000000000 -1.1296936562022948e-06 -1.1864099057896226e-05 0.15969960941847128 6.2536313772191441e-09 -4.1879846138743804e-08 0.50000000000000000 0.18750000000000000 0.49999887030634388 0.18748813590094213 
0.56250000000000000 0.18750000000000000 0.0000000000000000 -1.2228981946872059e-06 -1.3144619020035419e-05 0.12785849716131814 6.0282102564655087e-09 -4.3868592826322174e-08 0.56250000000000000 0.18750000000000000 0.56249877710180529 0.18748685538097998 
0.62500000000000000 0.18750000000000000 0.0000000000000000 -1.2853911066407655e-06 -1.4352101420912937e-05 0.10071325167071669 5.3760356799534634e-09 -4.6764726715030182e-08 0.62500000000000000 0.18750000000000000 0.62499871460889345 0.18748564789857911 
0.68750000000000000 0.18750000000000000 0.0000000000000000 -1.3223643981808939e-06 -1.5487448988311997e-05 0.077856297623371276 5.6856276698783115e-09 -4.7827117852158042e-08 0.68750000000000000 0.18750000000000000 0.68749867763560168 0.18748451255101170 
0.75000000000000000 0.18750000000000000 0.0000000000000000 -1.3391744714737905e-06 -1.6551742976120088e-05 0.059002431750573923 6.6586844492392128e-09 -5.0271215488981208e-08 0.75000000000000000 0.18750000000000000 0.74999866082552857 0.18748344825702387 
0.81250000000000000 0.18750000000000000 0.0000000000000000 -1.3413108344168049e-06 -1.7546608727428660e-05 0.044111816018994866 8.2445864081984559e-09 -4.2786513196825084e-08 0.81250000000000000 0.18750000000000000 0.81249865868916549 0.18748245339127256 
0.87500000000000000 0.18750000000000000 0.0000000000000000 -1.3342947655652332e-06 -1.8474212806796520e-05 0.033313206687378784 1.0298375337238984e-08 -6.7268336718672653e-08 0.87500000000000000 0.18750000000000000 0.87499866570523455 0.18748152578719321 
0.93750000000000000 0.18750000000000000 0.0000000000000000 -1.3234792494268329e-06 -1.9337346445941445e-05 0.023345039450525917 1.3387507069486712e-08 2.3936499779019851e-08 0.93750000000000000 0.18750000000000000 0.93749867652075058 0.18748066265355409 
1.0000000000000000 0.18750000000000000 0.0000000000000000 -1.3133678171878709e-06 -2.0144304573759472e-05 0.065238227653053496 0.0000000000000000 -2.5372565734615548e-07 1.0000000000000000 0.18750000000000000 0.99999868663218283 0.18747985569542625 
0.062500000000000000 0.25000000000000000 0.0000000000000000 5.0604756075654887e-09 -1.3889126318834638e-06 0.32101477325299288 -4.6732895409396602e-08 -5.7870169789867790e-07 0.062500000000000000 0.25000000000000000 0.062500005060475608 0.24999861108736812 
0.0000000000000000 0.25000000000000000 0.0000000000000000 2.3292974283459080e-24 0.0000000000000000 0.086842058761435179 -1.4289490106521254e-21 1.9958251318760695e-06 0.0000000000000000 0.25000000000000000 2.3292974283459080e-24 0.25000000000000000 
0.12500000000000000 0.25000000000000000 0.0000000000000000 1.5978074297814815e-08 -2.7829247742403527e-06 0.37311763780751317 8.5239936112508005e-08 3.1508643563793771e-07 0.12500000000000000 0.25000000000000000 0.12500001597807431 0.24999721707522579 
0.18750000000000000 0.25000000000000000 0.0000000000000000 2.3197783896451666e-08 -4.2237441441115372e-06 0.35613311368949691 -2.5747047580949056e-07 -1.9024659284612593e-07 0.18750000000000000 0.25000000000000000 0.18750002319778389 0.24999577625585587 
0.25000000000000000 0.25000000000000000 0.0000000000000000 3.0903684093849300e-08 -5.6900235446256283e-06 0.96838611179228806 7.8086912448000905e-07 7.5347094675703636e-07 0.25000000000000000 0.25000000000000000 0.25000003090368411 0.24999430997645541 
0.31250000000000000 0.25000000000000000 0.0000000000000000 -1.7995209229379170e-07 -7.3480183902891921e-06 0.28029663736869592 -8.7763247036255471e-08 -2.5449569717430706e-07 0.31250000000000000 0.25000000000000000 0.31249982004790772 0.24999265198160972 
0.37500000000000000 0.25000000000000000 0.0000000000000000 -3.4909278198033115e-07 -8.9061236475530787e-06 0.26141179309103713 8.8721799211968107e-08 1.4574601877512943e-08 0.37500000000000000 0.25000000000000000 0.37499965090721804 0.24999109387635246 
0.43750000000000000 0.25000000000000000 0.0000000000000000 -4.8016705855089785e-07 -1.0377673803991702e-05 0.21499636218328022 3.8082759456571309e-08 -5.0050606906543334e-08 0.43750000000000000 0.25000000000000000 0.43749951983294144 0.24998962232619601 
0.50000000000000000 0.25000000000000000 0.0000000000000000 -5.7655803137875557e-07 -1.1768127001426180e-05 0.17942231745078310 4.4347899158756049e-08 -3.8536861934754473e-08 0.50000000000000000 0.25000000000000000 0.49999942344196863 0.24998823187299860 
0.56250000000000000 0.25000000000000000 0.0000000000000000 -6.4200185295227467e-07 -1.3079812274003325e-05 0.14877448423695572 3.7740222281684761e-08 -4.5035167910697482e-08 0.56250000000000000 0.25000000000000000 0.56249935799814710 0.24998692018772603 
0.62500000000000000 0.25000000000000000 0.0000000000000000 -6.8055706111565280e-07 -1.4313785448170146e-05 0.12266740573267336 3.5399842675247071e-08 -4.6991273534939335e-08 0.62500000000000000 0.25000000000000000 0.62499931944293874 0.24998568621455183 
0.68750000000000000 0.25000000000000000 0.0000000000000000 -6.9661556426362540e-07 -1.5470709478581369e-05 0.10029119496764398 3.2900761796761718e-08 -4.8490754490835524e-08 0.68750000000000000 0.25000000000000000 0.68749930338443577 0.24998452929052142 
0.75000000000000000 0.25000000000000000 0.0000000000000000 -6.9488306825258385e-07 -1.6551431224387553e-05 0.081248747223690243 3.1268722708561752e-08 -5.1024468373983500e-08 0.75000000000000000 0.25000000000000000 0.74999930511693169 0.24998344856877561 
0.81250000000000000 0.25000000000000000 0.0000000000000000 -6.8036505867205708e-07 -1.7557384729502845e-05 0.065427396061176923 3.0029163818082459e-08 -4.3505127080574256e-08 0.81250000000000000 0.25000000000000000 0.81249931963494137 0.24998244261527050 
0.87500000000000000 0.25000000000000000 0.0000000000000000 -6.5831820336878234e-07 -1.8490653132313052e-05 0.052899356122476503 2.9341544806353372e-08 -6.9494805499345611e-08 0.87500000000000000 0.25000000000000000 0.87499934168179661 0.24998150934686772 
0.93750000000000000 0.25000000000000000 0.0000000000000000 -6.3412551174369747e-07 -1.9354260397898602e-05 0.039810606113911330 3.0262849696091014e-08 3.2489612124822471e-08 0.93750000000000000 0.25000000000000000 0.93749936587448823 0.24998064573960210 
1.0000000000000000 0.25000000000000000 0.0000000000000000 -6.1263374152208831e-07 -2.0156539589027175e-05 0.10658006194944314 0.0000000000000000 -2.9883589842757481e-07 1.0000000000000000 0.25000000000000000 0.99999938736625849 0.24997984346041094 
0.062500000000000000 0.31250000000000000 0.0000000000000000 9.9068061723909347e-09 -1.4050686351290490e-06 0.24543172908291833 -3.0375116586150740e-08 -5.0921169771188440e-07 0.062500000000000000 0.31250000000000000 0.062500009906806167 0.31249859493136484 
0.0000000000000000 0.31250000000000000 0.0000000000000000 1.8735639206395485e-24 0.0000000000000000 -0.22432337046489995 9.0933118858986868e-22 1.8762767659120773e-06 0.0000000000000000 0.31250000000000000 1.8735639206395485e-24 0.31250000000000000 
0.12500000000000000 0.31250000000000000 0.0000000000000000 3.9881249418360043e-08 -2.8067535010043268e-06 0.28227263013944981 -2.7063414606491193e-08 2.0332477140890687e-07 0.12500000000000000 0.31250000000000000 0.12500003988124941 0.31249719324649899 
0.18750000000000000 0.31250000000000000 0.0000000000000000 7.9814230681892720e-08 -4.2465503812669497e-06 0.33578836894305519 7.0676789252251051e-08 6.4024626279855092e-08 0.18750000000000000 0.31250000000000000 0.18750007981423067 0.31249575344961872 
0.25000000000000000 0.31250000000000000 0.0000000000000000 1.2026817951783676e-07 -5.7128664966202792e-06 0.31028068726536212 -2.1248758942730126e-07 -9.1838137675861219e-08 0.25000000000000000 0.31250000000000000 0.25000012026817947 0.31249428713350330 
0.31250000000000000 0.31250000000000000 0.0000000000000000 1.6533195572580340e-07 -7.1836352900281215e-06 0.76770237025161414 5.7127840878543974e-07 5.4634391994665793e-07 0.31250000000000000 0.31250000000000000 0.31250016533195574 0.31249281636470999 
0.37500000000000000 0.31250000000000000 0.0000000000000000 4.8861932642873406e-08 -8.7815409715984476e-06 0.25011640746430469 -7.9897619831890830e-08 -1.9397273375786264e-07 0.37500000000000000 0.31250000000000000 0.37500004886193267 0.31249121845902833 
0.43750000000000000 0.31250000000000000 0.0000000000000000 -3.4775397543854394e-08 -1.0285717917379232e-05 0.23901629432368762 6.0720201981143070e-08 6.6736637915022911e-09 0.43750000000000000 0.31250000000000000 0.43749996522460238 0.31248971428208261 
0.50000000000000000 0.31250000000000000 0.0000000000000000 -9.0641075327873740e-08 -1.1706084446061850e-05 0.20085149070545408 2.0931019199160918e-08 -4.6512656622133210e-08 0.50000000000000000 0.31250000000000000 0.49999990935892474 0.31248829391555394 
0.56250000000000000 0.31250000000000000 0.0000000000000000 -1.2092183061071514e-07 -1.3044378031601717e-05 0.17206614553456356 2.6794515086295148e-08 -3.9061258810080471e-08 0.56250000000000000 0.31250000000000000 0.56249987907816934 0.31248695562196843 
0.62500000000000000 0.31250000000000000 0.0000000000000000 -1.2865271536684304e-07 -1.4301198376938255e-05 0.14709064929691687 2.2461360102884140e-08 -4.5432755809185575e-08 0.62500000000000000 0.31250000000000000 0.62499987134728474 0.31248569880162308 
0.68750000000000000 0.31250000000000000 0.0000000000000000 -1.1735792783808833e-07 -1.5476796906993705e-05 0.12562082585326448 2.1711084983600935e-08 -4.6957178310394858e-08 0.68750000000000000 0.31250000000000000 0.68749988264207218 0.31248452320309300 
0.75000000000000000 0.31250000000000000 0.0000000000000000 -9.1061929374562144e-08 -1.6571631551128103e-05 0.10690165966409933 2.0989922523542806e-08 -5.0294848540865125e-08 0.75000000000000000 0.31250000000000000 0.74999990893807056 0.31248342836844895 
0.81250000000000000 0.31250000000000000 0.0000000000000000 -5.4245462740486905e-08 -1.7586765379502236e-05 0.090736692929285545 2.0889615399092100e-08 -4.3725391696008606e-08 0.81250000000000000 0.31250000000000000 0.81249994575453710 0.31248241323462050 
0.87500000000000000 0.31250000000000000 0.0000000000000000 -1.1836648591104453e-08 -1.8523968532028828e-05 0.077032714912213265 2.1955845781786415e-08 -6.9730559072849869e-08 0.87500000000000000 0.31250000000000000 0.87499998816335134 0.31248147603146798 
0.93750000000000000 0.31250000000000000 0.0000000000000000 3.0865507812152043e-08 -1.9386151677654341e-05 0.061338723151477315 2.1816063396325633e-08 3.4372200492941004e-08 0.93750000000000000 0.31250000000000000 0.93750003086550782 0.31248061384832232 
1.0000000000000000 0.31250000000000000 0.0000000000000000 6.8758355631364413e-08 -2.0181078307909763e-05 0.15736412226189117 0.0000000000000000 -3.2135700859509492e-07 1.0000000000000000 0.31250000000000000 1.0000000687583557 0.31247981892169208 
0.062500000000000000 0.37500000000000000 0.0000000000000000 1.4666689650325295e-08 -1.4331701499619221e-06 0.18079475550519108 -6.6918391143864489e-08 -5.1388403159679163e-07 0.062500000000000000 0.37500000000000000 0.062500014666689654 0.37499856682985006 
0.0000000000000000 0.37500000000000000 0.0000000000000000 -6.2313941943656857e-26 0.0000000000000000 -0.52031148523196347 3.8971336657428457e-22 1.8988671025742611e-06 0.0000000000000000 0.37500000000000000 -6.2313941943656857e-26 0.37500000000000000 
0.12500000000000000 0.37500000000000000 0.0000000000000000 6.2243990526264020e-08 -2.8546842665599877e-06 0.21498622464604430 -1.0092061159743920e-08 2.0591389492719153e-07 0.12500000000000000 0.37500000000000000 0.12500006224399052 0.37499714531573342 
0.18750000000000000 0.37500000000000000 0.0000000000000000 1.3037215641890272e-07 -4.3056015986428167e-06 0.26371381989009895 -2.9524367942417544e-08 -8.3507094349657465e-09 0.18750000000000000 0.37500000000000000 0.18750013037215643 0.37499569439840136 
0.25000000000000000 0.37500000000000000 0.0000000000000000 2.0988473318836812e-07 -5.7732176914648372e-06 0.30196361878205996 5.7034052767077884e-08 9.6204244634412461e-08 0.25000000000000000 0.37500000000000000 0.25000020988473320 0.37499422678230854 
0.31250000000000000 0.37500000000000000 0.0000000000000000 2.9111307112942482e-07 -7.2473707457767160e-06 0.27744990039495726 -1.5985516843331564e-07 -9.0963601397742917e-08 0.31250000000000000 0.37500000000000000 0.31250029111307115 0.37499275262925424 
0.37500000000000000 0.37500000000000000 0.0000000000000000 3.7825704047111492e-07 -8.7064918396867346e-06 0.61999990142434080 4.3137496977353230e-07 4.0708812036223405e-07 0.37500000000000000 0.37500000000000000 0.37500037825704041 0.37499129350816029 
0.43750000000000000 0.37500000000000000 0.0000000000000000 3.4523830984825637e-07 -1.0241396373923996e-05 0.23195328663217749 -5.9585243307566810e-08 -1.5705448556506387e-07 0.43750000000000000 0.37500000000000000 0.43750034523830988 0.37498975860362610 
0.50000000000000000 0.37500000000000000 0.0000000000000000 3.3713527910379255e-07 -1.1685072144082211e-05 0.22657592555354031 5.0804387107391222e-08 -2.0453070045064267e-09 0.50000000000000000 0.37500000000000000 0.50000033713527914 0.37498831492785589 
0.56250000000000000 0.37500000000000000 0.0000000000000000 3.4832931307336205e-07 -1.3044912278284983e-05 0.19597749639007969 1.8811674367040236e-08 -4.6555934656766096e-08 0.56250000000000000 0.37500000000000000 0.56250034832931306 0.37498695508772167 
0.62500000000000000 0.37500000000000000 0.0000000000000000 3.7732982416485972e-07 -1.4320493370028798e-05 0.17309030817211432 2.3569291915939631e-08 -4.1659021817347413e-08 0.62500000000000000 0.37500000000000000 0.62500037732982416 0.37498567950662998 
0.68750000000000000 0.37500000000000000 0.0000000000000000 4.2148812323549090e-07 -1.5511486827321099e-05 0.15289310100701023 2.0346262455167166e-08 -4.6949648224739547e-08 0.68750000000000000 0.37500000000000000 0.68750042148812318 0.37498448851317262 
0.75000000000000000 0.37500000000000000 0.0000000000000000 4.7754853869144811e-07 -1.6617788347566857e-05 0.13511656715728712 2.0242561091684332e-08 -5.0004821625764737e-08 0.75000000000000000 0.37500000000000000 0.75000047754853860 0.37498338221165245 
0.81250000000000000 0.37500000000000000 0.0000000000000000 5.4161766866604431e-07 -1.7639926953411705e-05 0.11927175131222896 2.0046952104542291e-08 -4.5042696766039204e-08 0.81250000000000000 0.37500000000000000 0.81250054161766883 0.37498236007304658 
0.87500000000000000 0.37500000000000000 0.0000000000000000 6.0918662819989990e-07 -1.8579162972997737e-05 0.10509349322554694 2.1761460568251458e-08 -6.9334846997598866e-08 0.87500000000000000 0.37500000000000000 0.87500060918662825 0.37498142083702701 