# For a description of the Tecplot format see the Tecplot User's guide.
#
Variables=x,y,z,s_u,s_v,s_p,x,y,ref_u,ref_v,u,v
Zone f=fepoint, n=289, e=512, et=quadrilateral, c=black
0.00000 0.00000 0.00000 0.0000000000000000 0.0000000000000000 1.9417606105982990 0.0000000000000000 0.0000000000000000 0.0000000000000000 0.0000000000000000 0.0000000000000000 0.0000000000000000 
0.062500000000000000 0.0000000000000000 0.0000000000000000 -1.5501351086677172e-06 -3.2424715546364396e-06 1.5495987196175032 1.4214657643333727e-06 0.0000000000000000 0.062500000000000000 0.0000000000000000 0.062498449864891330 -3.2424715546364396e-06 
0.062500000000000000 0.062500000000000000 0.0000000000000000 -3.6082796845831430e-07 -2.0484517567687936e-06 1.5932929380792735 8.3269814300066008e-07 3.9362687737075009e-07 0.062500000000000000 0.062500000000000000 0.062499639172031544 0.062497951548243232 
0.0000000000000000 0.062500000000000000 0.0000000000000000 0.0000000000000000 0.0000000000000000 1.6753292139077758 0.0000000000000000 1.1271242229709540e-06 0.0000000000000000 0.062500000000000000 0.0000000000000000 0.062500000000000000 
0.12500000000000000 0.0000000000000000 0.0000000000000000 -2.6031787917066988e-06 -5.1411727063980867e-06 1.1166627550151211 4.6741876550066795e-07 0.0000000000000000 0.12500000000000000 0.0000000000000000 0.12499739682120829 -5.1411727063980867e-06 
0.12500000000000000 0.062500000000000000 0.0000000000000000 -1.2979429312159380e-06 -4.2028731705939081e-06 1.1976456706702880 4.7599195984236619e-07 -1.6357396531043187e-07 0.12500000000000000 0.062500000000000000 0.12499870205706877 0.062495797126829407 
0.18750000000000000 0.0000000000000000 0.0000000000000000 -3.4459423300243555e-06 -6.7990692282187289e-06 0.86632338357695104 3.2308764507970807e-07 0.0000000000000000 0.18750000000000000 0.0000000000000000 0.18749655405766996 -6.7990692282187289e-06 
0.18750000000000000 0.062500000000000000 0.0000000000000000 -2.0975370186107481e-06 -6.0372863973101296e-06 0.91559278276045342 3.5959871089500836e-07 -2.8340600521606327e-08 0.18750000000000000 0.062500000000000000 0.18749790246298140 0.062493962713602691 
0.25000000000000000 0.0000000000000000 0.0000000000000000 -4.1433648852545745e-06 -8.3929871186762618e-06 0.69803830225831709 2.3813937766918862e-07 0.0000000000000000 0.25000000000000000 0.0000000000000000 0.24999585663511473 -8.3929871186762618e-06 
0.25000000000000000 0.062500000000000000 0.0000000000000000 -2.7700286597310234e-06 -7.7647350723979180e-06 0.73017054366406609 2.4127896502001126e-07 -1.5424190167803173e-08 0.25000000000000000 0.062500000000000000 0.24999722997134025 0.062492235264927594 
0.31250000000000000 0.0000000000000000 0.0000000000000000 -4.7203977127475759e-06 -9.9682870935248856e-06 0.56790717037151783 1.9667929903501360e-07 0.0000000000000000 0.31250000000000000 0.0000000000000000 0.31249527960228723 -9.9682870935248856e-06 
0.31250000000000000 0.062500000000000000 0.0000000000000000 -3.3305043224859762e-06 -9.4513720720717405e-06 0.59351804009111653 1.9321610678311300e-07 -8.2488576171187386e-09 0.31250000000000000 0.062500000000000000 0.31249666949567750 0.062490548627927918 
0.37500000000000000 0.0000000000000000 0.0000000000000000 -5.1906878572275237e-06 -1.1535546491675513e-05 0.45879668213645458 1.7157198188854445e-07 0.0000000000000000 0.37500000000000000 0.0000000000000000 0.37499480931214285 -1.1535546491675513e-05 
0.37500000000000000 0.062500000000000000 0.0000000000000000 -3.7913055811084649e-06 -1.1116134040538148e-05 0.48284992152489220 1.6251078619345619e-07 -1.3859471569681955e-08 0.37500000000000000 0.062500000000000000 0.37499620869441891 0.062488883865959459 
0.43750000000000000 0.0000000000000000 0.0000000000000000 -5.5644125594226753e-06 -1.3092920316919755e-05 0.36401450073288077 1.5184639707140859e-07 0.0000000000000000 0.43750000000000000 0.0000000000000000 0.43749443558744056 -1.3092920316919755e-05 
0.43750000000000000 0.062500000000000000 0.0000000000000000 -4.1629473419338937e-06 -1.2760397193325124e-05 0.38850047690659056 1.4055569143011761e-07 -2.3548790414695685e-08 0.43750000000000000 0.062500000000000000 0.43749583705265804 0.062487239602806673 
0.50000000000000000 0.0000000000000000 0.0000000000000000 -5.8509384796050489e-06 -1.4633713867256485e-05 0.28107267681628384 1.3374082166852969e-07 0.0000000000000000 0.50000000000000000 0.0000000000000000 0.49999414906152034 -1.4633713867256485e-05 
0.50000000000000000 0.062500000000000000 0.0000000000000000 -4.4549749102379074e-06 -1.4378549777728095e-05 0.30652310941754696 1.2215246089318684e-07 -3.4293711143078575e-08 0.50000000000000000 0.062500000000000000 0.49999554502508975 0.062485621450222274 
0.56250000000000000 0.0000000000000000 0.0000000000000000 -6.0598453588536919e-06 -1.6149605679318302e-05 0.20919339309044571 1.1563277773731932e-07 0.0000000000000000 0.56250000000000000 0.0000000000000000 0.56249394015464116 -1.6149605679318302e-05 
0.56250000000000000 0.062500000000000000 0.0000000000000000 -4.6765393565650862e-06 -1.5962437909242380e-05 0.23536830650954579 1.0509930903926133e-07 -4.4158533298513759e-08 0.56250000000000000 0.062500000000000000 0.56249532346064346 0.062484037562090755 
0.62500000000000000 0.0000000000000000 0.0000000000000000 -6.2013643207383855e-06 -1.7632321784889353e-05 0.14827894582469558 9.6853957126122654e-08 0.0000000000000000 0.62500000000000000 0.0000000000000000 0.62499379863567928 -1.7632321784889353e-05 
0.62500000000000000 0.062500000000000000 0.0000000000000000 -4.8367467725058621e-06 -1.7503547042744032e-05 0.17446758101851736 8.8545132157530439e-08 -5.1838487718443768e-08 0.62500000000000000 0.062500000000000000 0.62499516325322746 0.062482496452957247 
0.68750000000000000 0.0000000000000000 0.0000000000000000 -6.2866051238397393e-06 -1.9074721596666135e-05 0.098439930066969647 7.7389589733045009e-08 0.0000000000000000 0.68750000000000000 0.0000000000000000 0.68749371339487608 -1.9074721596666135e-05 
0.68750000000000000 0.062500000000000000 0.0000000000000000 -4.9448748163044423e-06 -1.8994298560076853e-05 0.12358971589435079 7.2362987175518796e-08 -5.6239146437595139e-08 0.68750000000000000 0.062500000000000000 0.68749505512518372 0.062481005701439933 
0.75000000000000000 0.0000000000000000 0.0000000000000000 -6.3277031308467921e-06 -2.0471742341761627e-05 0.059718255635530376 5.6984838935835423e-08 0.0000000000000000 0.75000000000000000 0.0000000000000000 0.74999367229686920 -2.0471742341761627e-05 
0.75000000000000000 0.062500000000000000 0.0000000000000000 -5.0105258361514781e-06 -2.0429083853064561e-05 0.082501638179842421 5.6580562905110875e-08 -5.6349452358601062e-08 0.75000000000000000 0.062500000000000000 0.74999498947416388 0.062479570916146927 
0.81250000000000000 0.0000000000000000 0.0000000000000000 -6.3378872849984239e-06 -2.1821483966878027e-05 0.031882166866091140 3.7716739831736200e-08 0.0000000000000000 0.81250000000000000 0.0000000000000000 0.81249366211271512 -2.1821483966878027e-05 
0.81250000000000000 0.062500000000000000 0.0000000000000000 -5.0437635685850692e-06 -2.1805402666212916e-05 0.050772973061023081 4.2606254241123413e-08 -5.1115244166470982e-08 0.81250000000000000 0.062500000000000000 0.81249495623643142 0.062478194597333787 
0.87500000000000000 0.0000000000000000 0.0000000000000000 -6.3313112893960993e-06 -2.3126605781556193e-05 0.014200507024943229 1.6733734436160754e-08 0.0000000000000000 0.87500000000000000 0.0000000000000000 0.87499366868871065 -2.3126605781556193e-05 
0.87500000000000000 0.062500000000000000 0.0000000000000000 -5.0552445684241376e-06 -2.3125374299639206e-05 0.027687669659852528 2.8081448112029116e-08 -3.9962567978707233e-08 0.87500000000000000 0.062500000000000000 0.87499494475543160 0.062476874625700361 
0.93750000000000000 0.0000000000000000 0.0000000000000000 -6.3221360379254735e-06 -2.4395851440752931e-05 0.0051815164014490161 5.1678728520912478e-09 0.0000000000000000 0.93750000000000000 0.0000000000000000 0.93749367786396209 -2.4395851440752931e-05 
0.93750000000000000 0.062500000000000000 0.0000000000000000 -5.0562849543288652e-06 -2.4397812680122569e-05 0.012406509780410592 2.3871315455951917e-08 -2.3624717194091440e-08 0.93750000000000000 0.062500000000000000 0.93749494371504571 0.062475602187319880 
1.0000000000000000 0.0000000000000000 0.0000000000000000 -6.3202507355873682e-06 -2.5642398985698520e-05 0.0018673805539292983 0.0000000000000000 0.0000000000000000 1.0000000000000000 0.0000000000000000 0.99999367974926445 -2.5642398985698520e-05 
1.0000000000000000 0.062500000000000000 0.0000000000000000 -5.0582938395167508e-06 -2.5640548801930920e-05 0.0052056597689419904 0.0000000000000000 -5.3730585897073395e-09 1.0000000000000000 0.062500000000000000 0.99999494170616055 0.062474359451198079 
0.062500000000000000 0.12500000000000000 0.0000000000000000 -1.6069553653842998e-07 -1.6032524358045524e-06 1.3047941928896181 1.0826775011961236e-07 4.6804247841322602e-07 0.062500000000000000 0.12500000000000000 0.062499839304463463 0.12499839674756419 
0.0000000000000000 0.12500000000000000 0.0000000000000000 0.0000000000000000 0.0000000000000000 1.2727513533313759 0.0000000000000000 6.2735582700668963e-07 0.0000000000000000 0.12500000000000000 0.0000000000000000 0.12500000000000000 
0.12500000000000000 0.12500000000000000 0.0000000000000000 -5.9586167026861264e-07 -3.4427025400902412e-06 1.1284478240187419 3.9790542719274142e-07 2.7459420916525734e-07 0.12500000000000000 0.12500000000000000 0.12499940413832973 0.12499655729745991 
0.18750000000000000 0.12500000000000000 0.0000000000000000 -1.2030088765954226e-06 -5.3538962998253259e-06 0.89542248870155927 3.4979112035468356e-07 9.8241911023773060e-08 0.18750000000000000 0.12500000000000000 0.18749879699112340 0.12499464610370016 
0.25000000000000000 0.12500000000000000 0.0000000000000000 -1.7662294769976249e-06 -7.1832171340875974e-06 0.71537470976083328 2.3345698801813369e-07 5.6493870545199865e-08 0.25000000000000000 0.12500000000000000 0.24999823377052302 0.12499281678286590 
0.31250000000000000 0.12500000000000000 0.0000000000000000 -2.2546906997387258e-06 -8.9659513537028961e-06 0.58267991310395162 1.8377205380805230e-07 4.2247160558084690e-08 0.31250000000000000 0.12500000000000000 0.31249774530930025 0.12499103404864630 
0.37500000000000000 0.12500000000000000 0.0000000000000000 -2.6648015428742394e-06 -1.0717953002685492e-05 0.47836183646631447 1.4954419239038143e-07 2.5252182110041837e-08 0.37500000000000000 0.12500000000000000 0.37499733519845707 0.12498928204699732 
0.43750000000000000 0.12500000000000000 0.0000000000000000 -3.0002431805893431e-06 -1.2440795048536769e-05 0.39155354585181706 1.2770917165851177e-07 9.2505883367222952e-09 0.43750000000000000 0.12500000000000000 0.43749699975681944 0.12498755920495146 
0.50000000000000000 0.12500000000000000 0.0000000000000000 -3.2670001161834239e-06 -1.4129228561672435e-05 0.31712785649766112 1.1054085832937801e-07 -5.9788351561506790e-09 0.50000000000000000 0.12500000000000000 0.49999673299988384 0.12498587077143831 
0.56250000000000000 0.12500000000000000 0.0000000000000000 -3.4718512545361538e-06 -1.5775278993357748e-05 0.25273271892094257 9.5662620789437393e-08 -1.9382102146968141e-08 0.56250000000000000 0.12500000000000000 0.56249652814874551 0.12498422472100666 
0.62500000000000000 0.12500000000000000 0.0000000000000000 -3.6218812527658590e-06 -1.7370441484152988e-05 0.19722558720755901 8.2002508362241222e-08 -3.0284546398159957e-08 0.62500000000000000 0.12500000000000000 0.62499637811874720 0.12498262955851584 
0.68750000000000000 0.12500000000000000 0.0000000000000000 -3.7243672275621005e-06 -1.8906994747870177e-05 0.14989664136755940 6.9404497450668082e-08 -3.8046392074617814e-08 0.68750000000000000 0.12500000000000000 0.68749627563277249 0.12498109300525213 
0.75000000000000000 0.12500000000000000 0.0000000000000000 -3.7868632225771135e-06 -2.0378993955415438e-05 0.11006685705434961 5.7799846571853177e-08 -4.2104665547054285e-08 0.75000000000000000 0.12500000000000000 0.74999621313677745 0.12497962100604458 
0.81250000000000000 0.12500000000000000 0.0000000000000000 -3.8174728235577251e-06 -2.1783284458615505e-05 0.076906838158054741 4.8712212718547890e-08 -4.1756140737697357e-08 0.81250000000000000 0.12500000000000000 0.81249618252717648 0.12497821671554137 
0.87500000000000000 0.12500000000000000 0.0000000000000000 -3.8253618986279423e-06 -2.3120790725396759e-05 0.049491972440341696 3.8235045124442774e-08 -3.7064201537238675e-08 0.87500000000000000 0.12500000000000000 0.87499617463810153 0.12497687920927460 
0.93750000000000000 0.12500000000000000 0.0000000000000000 -3.8215967733391385e-06 -2.4398342464984396e-05 0.027530617244188826 3.9334970767534145e-08 -2.7137917493127171e-08 0.93750000000000000 0.12500000000000000 0.93749617840322663 0.12497560165753500 
1.0000000000000000 0.12500000000000000 0.0000000000000000 -3.8202627107416622e-06 -2.5631574182938784e-05 0.014229544570978086 0.0000000000000000 -1.7386474501780534e-08 1.0000000000000000 0.12500000000000000 0.99999617973728927 0.12497436842581706 
0.062500000000000000 0.18750000000000000 0.0000000000000000 -8.5042625442662944e-08 -1.3800026676409153e-06 1.0117942963503386 3.2053285835882854e-08 4.2035192331809207e-07 0.062500000000000000 0.18750000000000000 0.062499914957374558 0.18749861999733233 
0.0000000000000000 0.18750000000000000 0.0000000000000000 0.0000000000000000 0.0000000000000000 0.95955073346123132 0.0000000000000000 4.8077983046148093e-07 0.0000000000000000 0.18750000000000000 0.0000000000000000 0.18750000000000000 
0.12500000000000000 0.18750000000000000 0.0000000000000000 -3.1136902248339933e-07 -3.0327857341876040e-06 0.94228598230169469 1.9039313133351150e-07 3.3335831206934768e-07 0.12500000000000000 0.18750000000000000 0.12499968863097753 0.18749696721426581 
0.18750000000000000 0.18750000000000000 0.0000000000000000 -6.5900393354464445e-07 -4.8461080012873481e-06 0.81004097197535130 2.3473012311748006e-07 1.8091723341217084e-07 0.18750000000000000 0.18750000000000000 0.18749934099606647 0.18749515389199869 
0.25000000000000000 0.18750000000000000 0.0000000000000000 -1.0627139463535825e-06 -6.7099059198122994e-06 0.66842272685685467 2.0541628220443520e-07 9.8148622280061948e-08 0.25000000000000000 0.18750000000000000 0.24999893728605363 0.18749329009408019 
0.31250000000000000 0.18750000000000000 0.0000000000000000 -1.4412020587151729e-06 -8.5559391811946086e-06 0.55184038387896239 1.6311791137959730e-07 6.4601291784633215e-08 0.31250000000000000 0.18750000000000000 0.31249855879794136 0.18749144406081883 
0.37500000000000000 0.18750000000000000 0.0000000000000000 -1.7698486711223196e-06 -1.0375683110465038e-05 0.45913582039969053 1.3107970458001168e-07 4.1012425234504569e-08 0.37500000000000000 0.18750000000000000 0.37499823015132888 0.18748962431688954 
0.43750000000000000 0.18750000000000000 0.0000000000000000 -2.0423426642521080e-06 -1.2163710836021920e-05 0.38300141424707301 1.1038505830171780e-07 2.1791973750328386e-08 0.43750000000000000 0.18750000000000000 0.43749795765733573 0.18748783628916399 
0.50000000000000000 0.18750000000000000 0.0000000000000000 -2.2593309098845772e-06 -1.3912429378312650e-05 0.31850652222164810 9.4661951330863310e-08 4.2241552190115645e-09 0.50000000000000000 0.18750000000000000 0.49999774066909014 0.18748608757062168 
0.56250000000000000 0.18750000000000000 0.0000000000000000 -2.4243113017775136e-06 -1.5612991099621293e-05 0.26294405469764975 8.1961282790684245e-08 -1.1239128186634465e-08 0.56250000000000000 0.18750000000000000 0.56249757568869818 0.18748438700890038 
0.62500000000000000 0.18750000000000000 0.0000000000000000 -2.5420013694848579e-06 -1.7256511023152206e-05 0.21480035160870259 7.1040035471246080e-08 -2.4310431885100093e-08 0.62500000000000000 0.18750000000000000 0.62499745799863049 0.18748274348897684 
0.68750000000000000 0.18750000000000000 0.0000000000000000 -2.6177231579266913e-06 -1.8834976657424516e-05 0.17303462013794865 6.1693163962442183e-08 -3.4581981590720422e-08 0.68750000000000000 0.18750000000000000 0.68749738227684210 0.18748116502334258 
0.75000000000000000 0.18750000000000000 0.0000000000000000 -2.6573129620696712e-06 -2.0341961809563211e-05 0.13666262063375612 5.3845249869030578e-08 -4.1738929721737989e-08 0.75000000000000000 0.18750000000000000 0.74999734268703788 0.18747965803819044 
0.81250000000000000 0.18750000000000000 0.0000000000000000 -2.6674254905777184e-06 -2.1773317695578703e-05 0.10457631303329940 4.8915017707546765e-08 -4.5290041042602833e-08 0.81250000000000000 0.18750000000000000 0.81249733257450940 0.18747822668230443 
0.87500000000000000 0.18750000000000000 0.0000000000000000 -2.6562452957130998e-06 -2.3127993618573027e-05 0.075666596034036138 4.2608466307146458e-08 -4.5491301242714783e-08 0.87500000000000000 0.18750000000000000 0.87499734375470428 0.18747687200638144 
0.93750000000000000 0.18750000000000000 0.0000000000000000 -2.6346941079580644e-06 -2.4409153256767228e-05 0.049893457833395931 4.8682113938531635e-08 -4.0434566536510978e-08 0.93750000000000000 0.18750000000000000 0.93749736530589189 0.18747559084674323 
1.0000000000000000 0.18750000000000000 0.0000000000000000 -2.6181152198212965e-06 -2.5625989787273666e-05 0.031736445185151056 0.0000000000000000 -3.8132470497250240e-08 1.0000000000000000 0.18750000000000000 0.99999738188478016 0.18747437401021272 
0.062500000000000000 0.25000000000000000 0.0000000000000000 -4.6356898196744661e-08 -1.2661662523660504e-06 0.77009610308264442 -2.6283120601105037e-08 3.4002005956635270e-07 0.062500000000000000 0.25000000000000000 0.062499953643101798 0.24999873383374763 
0.0000000000000000 0.25000000000000000 0.0000000000000000 0.0000000000000000 0.0000000000000000 0.71425916503716047 0.0000000000000000 3.7718770604647193e-07 0.0000000000000000 0.25000000000000000 0.0000000000000000 0.25000000000000000 
0.12500000000000000 0.25000000000000000 0.0000000000000000 -1.6145300339656923e-07 -2.8086452056207528e-06 0.74582688433691791 9.2542487480626203e-08 2.9782546010455596e-07 0.12500000000000000 0.25000000000000000 0.12499983854699660 0.24999719135479434 
0.18750000000000000 0.25000000000000000 0.0000000000000000 -3.4879337046822990e-07 -4.5415605709596728e-06 0.67826361353681452 1.2882816912840315e-07 2.2413054106141649e-07 0.18750000000000000 0.25000000000000000 0.18749965120662956 0.24999545843942905 
0.25000000000000000 0.25000000000000000 0.0000000000000000 -5.8654203584109316e-07 -6.3782117724670007e-06 0.59001420902317070 1.4670546670029281e-07 1.4881276022045562e-07 0.25000000000000000 0.25000000000000000 0.24999941345796417 0.24999362178822751 
0.31250000000000000 0.25000000000000000 0.0000000000000000 -8.3664365916374496e-07 -8.2501225462490974e-06 0.50261759605331646 1.2916576887537135e-07 9.3019255280460370e-08 0.31250000000000000 0.25000000000000000 0.31249916335634081 0.24999174987745376 
0.37500000000000000 0.25000000000000000 0.0000000000000000 -1.0641018219626075e-06 -1.0114405478791892e-05 0.42761603325396730 1.0756260824244544e-07 6.0246774620055392e-08 0.37500000000000000 0.25000000000000000 0.37499893589817801 0.24998988559452121 
0.43750000000000000 0.25000000000000000 0.0000000000000000 -1.2544588487680177e-06 -1.1951790444747452e-05 0.36503135810342552 9.0467042958165250e-08 3.6086829213899118e-08 0.43750000000000000 0.25000000000000000 0.43749874554115126 0.24998804820955525 
0.50000000000000000 0.25000000000000000 0.0000000000000000 -1.4032987774431809e-06 -1.3749129382804029e-05 0.31214045331061990 7.7262860647582407e-08 1.6018339435131033e-08 0.50000000000000000 0.25000000000000000 0.49999859670122254 0.24998625087061718 
0.56250000000000000 0.25000000000000000 0.0000000000000000 -1.5108813024912337e-06 -1.5495232598480702e-05 0.26670367432784892 6.6942635741949158e-08 -1.1857992403961251e-09 0.56250000000000000 0.25000000000000000 0.56249848911869738 0.24998450476740156 
0.62500000000000000 0.25000000000000000 0.0000000000000000 -1.5796483912184402e-06 -1.7180155201520941e-05 0.22720744691395892 5.8517317643996634e-08 -1.5944810855663945e-08 0.62500000000000000 0.25000000000000000 0.62499842035160880 0.24998281984479845 
0.68750000000000000 0.25000000000000000 0.0000000000000000 -1.6131416789603383e-06 -1.8795253503848666e-05 0.19250835469693375 5.1829329728192957e-08 -2.8272479583539305e-08 0.68750000000000000 0.25000000000000000 0.68749838685832099 0.24998120474649618 
0.75000000000000000 0.25000000000000000 0.0000000000000000 -1.6156930382644557e-06 -2.0333382709120179e-05 0.16150566253681106 4.6828498734309334e-08 -3.8195841071739898e-08 0.75000000000000000 0.25000000000000000 0.74999838430696186 0.24997966661729087 
0.81250000000000000 0.25000000000000000 0.0000000000000000 -1.5926601808925040e-06 -2.1789114896298860e-05 0.13297448217090993 4.4801494771652445e-08 -4.5514428605562969e-08 0.81250000000000000 0.25000000000000000 0.81249840733981926 0.24997821088510366 
0.87500000000000000 0.25000000000000000 0.0000000000000000 -1.5511621558222406e-06 -2.3158967923468265e-05 0.10569157389717508 4.1692060614157239e-08 -5.0733925717933137e-08 0.87500000000000000 0.25000000000000000 0.87499844883784406 0.24997684103207654 
0.93750000000000000 0.25000000000000000 0.0000000000000000 -1.5013545284917464e-06 -2.4441652543426543e-05 0.079597169419554081 5.0727369729194726e-08 -5.1605795528767686e-08 0.93750000000000000 0.25000000000000000 0.93749849864547141 0.24997555834745658 
1.0000000000000000 0.25000000000000000 0.0000000000000000 -1.4580974084155584e-06 -2.5638401921222633e-05 0.058635218281014721 0.0000000000000000 -5.5559834294632241e-08 1.0000000000000000 0.25000000000000000 0.99999854190259152 0.24997436159807881 
0.062500000000000000 0.31250000000000000 0.0000000000000000 -2.3166956445246602e-08 -1.2142909059907813e-06 0.56842215364022364 -5.3564712555948855e-08 2.9434126572645168e-07 0.062500000000000000 0.31250000000000000 0.062499976833043557 0.31249878570909401 
0.0000000000000000 0.31250000000000000 0.0000000000000000 0.0000000000000000 0.0000000000000000 0.51100726353827841 0.0000000000000000 3.1692118513113353e-07 0.0000000000000000 0.31250000000000000 0.0000000000000000 0.31250000000000000 
0.12500000000000000 0.31250000000000000 0.0000000000000000 -7.0007256977565530e-08 -2.6978457266458227e-06 0.56864196200341688 4.3133214276026705e-08 2.6659763890472968e-07 0.12500000000000000 0.31250000000000000 0.12499992999274302 0.31249730215427335 
0.18750000000000000 0.31250000000000000 0.0000000000000000 -1.5124007866781204e-07 -4.3802986899599653e-06 0.53865294649236450 6.4303675021763390e-08 2.1785456393734277e-07 0.18750000000000000 0.31250000000000000 0.18749984875992134 0.31249561970131001 
0.25000000000000000 0.31250000000000000 0.0000000000000000 -2.6188790983178139e-07 -6.1891110210455033e-06 0.49147461118555197 8.3696771337259378e-08 1.6409298513641888e-07 0.25000000000000000 0.31250000000000000 0.24999973811209017 0.31249381088897893 
0.31250000000000000 0.31250000000000000 0.0000000000000000 -3.8603993555658901e-07 -8.0616410196008588e-06 0.43747824301504207 8.5913335111422348e-08 1.1373665877834580e-07 0.31250000000000000 0.31250000000000000 0.31249961396006443 0.31249193835898043 
0.37500000000000000 0.31250000000000000 0.0000000000000000 -5.0412868637982286e-07 -9.9497481494275321e-06 0.38525060673536177 7.8093087975331514e-08 7.5381591478722314e-08 0.37500000000000000 0.31250000000000000 0.37499949587131359 0.31249005025185056 
0.43750000000000000 0.31250000000000000 0.0000000000000000 -6.0074305822753258e-07 -1.1820890703489748e-05 0.33916856599020989 6.7328973520937520e-08 4.7025005606287235e-08 0.43750000000000000 0.31250000000000000 0.43749939925694176 0.31248817910929644 
0.50000000000000000 0.31250000000000000 0.0000000000000000 -6.6886202913832236e-07 -1.3654742424904493e-05 0.29953599577105189 5.7902721975139785e-08 2.4548402052001088e-08 0.50000000000000000 0.31250000000000000 0.49999933113797085 0.31248634525757507 
0.56250000000000000 0.31250000000000000 0.0000000000000000 -7.0652197102816576e-07 -1.5436663145813615e-05 0.26535571809221198 5.0258234489482123e-08 5.6600370530524595e-09 0.56250000000000000 0.31250000000000000 0.56249929347802896 0.31248456333685420 
0.62500000000000000 0.31250000000000000 0.0000000000000000 -7.1441253098619995e-07 -1.7155048245626580e-05 0.23555359891123892 4.4167054081880807e-08 -1.0610333571731103e-08 0.62500000000000000 0.31250000000000000 0.62499928558746898 0.31248284495175443 
0.68750000000000000 0.31250000000000000 0.0000000000000000 -6.9461623739585462e-07 -1.8800317806614798e-05 0.20914952484826846 3.9635225960336243e-08 -2.4695889219206763e-08 0.68750000000000000 0.31250000000000000 0.68749930538376258 0.31248119968219340 
0.75000000000000000 0.31250000000000000 0.0000000000000000 -6.5014198382070713e-07 -2.0364453133542353e-05 0.18512458034810242 3.6713949903385971e-08 -3.6925565324219436e-08 0.75000000000000000 0.31250000000000000 0.74999934985801620 0.31247963554686647 
0.81250000000000000 0.31250000000000000 0.0000000000000000 -5.8504665876407355e-07 -2.1840664507718237e-05 0.16230030075370416 3.6524789329374982e-08 -4.7371148796472448e-08 0.81250000000000000 0.31250000000000000 0.81249941495334121 0.31247815933549233 
0.87500000000000000 0.31250000000000000 0.0000000000000000 -5.0507392374830353e-07 -2.3223005095035794e-05 0.13942729174510990 3.5738854610467153e-08 -5.6722803383012911e-08 0.87500000000000000 0.31250000000000000 0.87499949492607609 0.31247677699490500 
0.93750000000000000 0.31250000000000000 0.0000000000000000 -4.1880462586541135e-07 -2.4505785245812452e-05 0.11621327397497531 4.6227734795959081e-08 -6.2535676648962406e-08 0.93750000000000000 0.31250000000000000 0.93749958119537424 0.31247549421475412 
1.0000000000000000 0.31250000000000000 0.0000000000000000 -3.3906590739350547e-07 -2.5682602235228780e-05 0.094593001119518960 0.0000000000000000 -7.1748307009153174e-08 1.0000000000000000 0.31250000000000000 0.99999966093409265 0.31247431739776477 
0.062500000000000000 0.37500000000000000 0.0000000000000000 -7.5511410951495547e-09 -1.2010940965049305e-06 0.39270629103478988 -7.4867578012986150e-08 2.6466215308499061e-07 0.062500000000000000 0.37500000000000000 0.062499992448858906 0.37499879890590343 
0.0000000000000000 0.37500000000000000 0.0000000000000000 0.0000000000000000 0.0000000000000000 0.33284329464956025 0.0000000000000000 2.8279400090807068e-07 0.0000000000000000 0.37500000000000000 0.0000000000000000 0.37500000000000000 
0.12500000000000000 0.37500000000000000 0.0000000000000000 -7.2781396282712712e-09 -2.6630951193497443e-06 0.41020012218459129 6.8402416588503061e-09 2.4070335493244692e-07 0.12500000000000000 0.37500000000000000 0.12499999272186037 0.37499733690488063 
0.18750000000000000 0.37500000000000000 0.0000000000000000 -1.1152832301160374e-08 -4.3236218046810267e-06 0.40563323122930561 1.8843249082399807e-08 2.0415709150453947e-07 0.18750000000000000 0.37500000000000000 0.18749998884716770 0.37499567637819536 
0.25000000000000000 0.37500000000000000 0.0000000000000000 -2.2166004343519270e-08 -6.1180855683144755e-06 0.38800427117739517 3.6321107745706958e-08 1.6394873268600850e-07 0.25000000000000000 0.37500000000000000 0.24999997783399566 0.37499388191443167 
0.31250000000000000 0.37500000000000000 0.0000000000000000 -3.6587063116790629e-08 -7.9888099174751803e-06 0.36275570399679019 4.3460655777674283e-08 1.2285877578984701e-07 0.31250000000000000 0.37500000000000000 0.31249996341293690 0.37499201119008246 
0.37500000000000000 0.37500000000000000 0.0000000000000000 -4.6870967091941578e-08 -9.8883599062336533e-06 0.33448348358702412 4.4905787623101901e-08 8.5910130817570813e-08 0.37500000000000000 0.37500000000000000 0.37499995312903289 0.37499011164009377 
0.43750000000000000 0.37500000000000000 0.0000000000000000 -4.4891523055712705e-08 -1.1780580502592560e-05 0.30692435257568268 4.1501404449509915e-08 5.5595673000918947e-08 0.43750000000000000 0.37500000000000000 0.43749995510847700 0.37498821941949739 
0.50000000000000000 0.37500000000000000 0.0000000000000000 -2.4861160440679593e-08 -1.3639675517903317e-05 0.28202342531027530 3.6729661256304652e-08 3.1215992497670632e-08 0.50000000000000000 0.37500000000000000 0.49999997513883959 0.37498636032448207 
0.56250000000000000 0.37500000000000000 0.0000000000000000 1.5629344710815932e-08 -1.5447590729051721e-05 0.26013472738191390 3.2176964692562870e-08 1.0864496718210603e-08 0.56250000000000000 0.37500000000000000 0.56250001562934482 0.37498455240927092 
0.62500000000000000 0.37500000000000000 0.0000000000000000 7.6754382396720768e-08 -1.7190902856629309e-05 0.24091952697261809 2.8413714910715135e-08 -6.6552490905773688e-09 0.62500000000000000 0.37500000000000000 0.62500007675438241 0.37498280909714338 
0.68750000000000000 0.37500000000000000 0.0000000000000000 1.5742363428936704e-07 -1.8859016245182547e-05 0.22379884603174516 2.5702977596290043e-08 -2.2103574243304021e-08 0.68750000000000000 0.37500000000000000 0.68750015742363424 0.37498114098375485 
0.75000000000000000 0.37500000000000000 0.0000000000000000 2.5574436218804066e-07 -2.0443076704245742e-05 0.20802098209715925 2.4270121237092976e-08 -3.6065218333028707e-08 0.75000000000000000 0.37500000000000000 0.75000025574436224 0.37497955692329571 
0.81250000000000000 0.37500000000000000 0.0000000000000000 3.6899654007169115e-07 -2.1935109352434621e-05 0.19260564316127873 2.5057449452153382e-08 -4.8873173041125768e-08 0.81250000000000000 0.37500000000000000 0.81250036899654010 0.37497806489064756 
0.87500000000000000 0.37500000000000000 0.0000000000000000 4.9315273817603459e-07 -2.3327075725057544e-05 0.17636793187457514 2.5843617557572083e-08 -6.1324332046041800e-08 0.87500000000000000 0.37500000000000000 0.87500049315273820 0.37497667292427495 