# For a description of the Tecplot format see the Tecplot User's guide.
#
Variables=x,y,z,s_u,s_v,s_p,x,y,ref_u,ref_v,u,v
Zone f=fepoint, n=289, e=512, et=quadrilateral, c=black
0.00000 0.00000 0.00000 0.0000000000000000 0.0000000000000000 1.7610086289923754 0.0000000000000000 0.0000000000000000 0.0000000000000000 0.0000000000000000 0.0000000000000000 0.0000000000000000 
0.062500000000000000 0.0000000000000000 0.0000000000000000 -1.5867802770912550e-06 -3.2289172942310807e-06 1.4528636605616283 1.1312901971201518e-06 0.0000000000000000 0.062500000000000000 0.0000000000000000 0.062498413219722909 -3.2289172942310807e-06 
0.062500000000000000 0.062500000000000000 0.0000000000000000 -3.9680528814622480e-07 -2.0528078583124014e-06 1.4874808117800082 6.4550565522422262e-07 3.1152824122096084e-07 0.062500000000000000 0.062500000000000000 0.062499603194711852 0.062497947192141690 
0.0000000000000000 0.062500000000000000 0.0000000000000000 0.0000000000000000 0.0000000000000000 1.5500273538695690 0.0000000000000000 8.8336008830009778e-07 0.0000000000000000 0.062500000000000000 0.0000000000000000 0.062500000000000000 
0.12500000000000000 0.0000000000000000 0.0000000000000000 -2.6519786741844830e-06 -5.1428722686103145e-06 1.0837336652563507 4.3186574577101432e-07 0.0000000000000000 0.12500000000000000 0.0000000000000000 0.12499734802132582 -5.1428722686103145e-06 
0.12500000000000000 0.062500000000000000 0.0000000000000000 -1.3397393863911787e-06 -4.2113145841786064e-06 1.1592526644336478 4.4105764775227065e-07 -1.3851251366818223e-07 0.12500000000000000 0.062500000000000000 0.12499866026061361 0.062495788685415825 
0.18750000000000000 0.0000000000000000 0.0000000000000000 -3.4970798890080495e-06 -6.8143282974768048e-06 0.84991577109982741 3.1257989701691584e-07 0.0000000000000000 0.18750000000000000 0.0000000000000000 0.18749650292011100 -6.8143282974768048e-06 
0.18750000000000000 0.062500000000000000 0.0000000000000000 -2.1399504210192119e-06 -6.0568466788819971e-06 0.90279645863407765 3.4269015072472798e-07 -4.7060348839934346e-08 0.18750000000000000 0.062500000000000000 0.18749786004957894 0.062493943153321123 
0.25000000000000000 0.0000000000000000 0.0000000000000000 -4.1939786514791171e-06 -8.4185864359645996e-06 0.68545509181564368 2.3305626736834084e-07 0.0000000000000000 0.25000000000000000 0.0000000000000000 0.24999580602134852 -8.4185864359645996e-06 
0.25000000000000000 0.062500000000000000 0.0000000000000000 -2.8117138955461179e-06 -7.7942206476387305e-06 0.72333353251615529 2.3985165965448600e-07 -3.4752841639527708e-08 0.25000000000000000 0.062500000000000000 0.24999718828610448 0.062492205779352362 
0.31250000000000000 0.0000000000000000 0.0000000000000000 -4.7698238933758359e-06 -1.0002429519518453e-05 0.55724724648135016 1.9141679505833404e-07 0.0000000000000000 0.31250000000000000 0.0000000000000000 0.31249523017610664 -1.0002429519518453e-05 
0.31250000000000000 0.062500000000000000 0.0000000000000000 -3.3712439869566328e-06 -9.4890618146279895e-06 0.58802720296037725 1.9226004522232035e-07 -2.6214939545839718e-08 0.31250000000000000 0.062500000000000000 0.31249662875601297 0.062490510938185369 
0.37500000000000000 0.0000000000000000 0.0000000000000000 -5.2388361353385896e-06 -1.1577320782503319e-05 0.45036312808664142 1.6517862438053952e-07 0.0000000000000000 0.37500000000000000 0.0000000000000000 0.37499476116386465 -1.1577320782503319e-05 
0.37500000000000000 0.062500000000000000 0.0000000000000000 -3.8311104577794530e-06 -1.1160922753324083e-05 0.47837244378357813 1.6082844841255380e-07 -2.8114561743683780e-08 0.37500000000000000 0.062500000000000000 0.37499616888954224 0.062488839077246679 
0.43750000000000000 0.0000000000000000 0.0000000000000000 -5.6112683928090305e-06 -1.3141835206299818e-05 0.35822925500976371 1.4489605982731344e-07 0.0000000000000000 0.43750000000000000 0.0000000000000000 0.43749438873160718 -1.3141835206299818e-05 
0.43750000000000000 0.062500000000000000 0.0000000000000000 -4.2018074412684387e-06 -1.2811663518187891e-05 0.38544310971572510 1.3835701924018407e-07 -3.4023337105675312e-08 0.43750000000000000 0.062500000000000000 0.43749579819255874 0.062487188336481814 
0.50000000000000000 0.0000000000000000 0.0000000000000000 -5.8964558136747294e-06 -1.4689436316699941e-05 0.27807178862906845 1.2683707722591687e-07 0.0000000000000000 0.50000000000000000 0.0000000000000000 0.49999410354418633 -1.4689436316699941e-05 
0.50000000000000000 0.062500000000000000 0.0000000000000000 -4.4928380635255705e-06 -1.4435921076209137e-05 0.30514856725657435 1.1985242388573767e-07 -4.1204438919807004e-08 0.50000000000000000 0.062500000000000000 0.49999550716193647 0.062485564078923798 
0.56250000000000000 0.0000000000000000 0.0000000000000000 -6.1039552968535136e-06 -1.6211845212056527e-05 0.20882785766207965 1.0928205683255560e-07 0.0000000000000000 0.56250000000000000 0.0000000000000000 0.56249389604470312 -1.6211845212056527e-05 
0.56250000000000000 0.062500000000000000 0.0000000000000000 -4.7133389571116593e-06 -1.6025649595235146e-05 0.23568530834112411 1.0304814916174112e-07 -4.7849496573803121e-08 0.56250000000000000 0.062500000000000000 0.56249528666104276 0.062483974350404765 
0.62500000000000000 0.0000000000000000 0.0000000000000000 -6.2440095888608501e-06 -1.7700788529567949e-05 0.15017370286948209 9.1486143029715523e-08 0.0000000000000000 0.62500000000000000 0.0000000000000000 0.62499375599041118 -1.7700788529567949e-05 
0.62500000000000000 0.062500000000000000 0.0000000000000000 -4.8724335947558039e-06 -1.7572379751548801e-05 0.17628020346766379 8.6976668446773919e-08 -5.2741842943096641e-08 0.62500000000000000 0.062500000000000000 0.62499512756640530 0.062482427620248450 
0.68750000000000000 0.0000000000000000 0.0000000000000000 -6.3277737942359379e-06 -1.9149122062294922e-05 0.10204484845124075 7.3386691987017898e-08 0.0000000000000000 0.68750000000000000 0.0000000000000000 0.68749367222620572 -1.9149122062294922e-05 
0.68750000000000000 0.062500000000000000 0.0000000000000000 -4.9794420461351326e-06 -1.9068563098169646e-05 0.12656095868988476 7.1418106528711228e-08 -5.4912962345300907e-08 0.68750000000000000 0.062500000000000000 0.68749502055795386 0.062480931436901831 
0.75000000000000000 0.0000000000000000 0.0000000000000000 -6.3674530059475793e-06 -2.0551798433142722e-05 0.064365877298136587 5.4683237834403871e-08 0.0000000000000000 0.75000000000000000 0.0000000000000000 0.74999363254699392 -2.0551798433142722e-05 
0.75000000000000000 0.062500000000000000 0.0000000000000000 -5.0440235725178343e-06 -2.0508634235260432e-05 0.086221036216577299 5.6275379785177398e-08 -5.3517489382575344e-08 0.75000000000000000 0.062500000000000000 0.74999495597642751 0.062479491365764743 
0.81250000000000000 0.0000000000000000 0.0000000000000000 -6.3763516677408368e-06 -2.1906968234157184e-05 0.036871540061160495 3.7171863689609376e-08 0.0000000000000000 0.81250000000000000 0.0000000000000000 0.81249362364833233 -2.1906968234157184e-05 
0.81250000000000000 0.062500000000000000 0.0000000000000000 -5.0762956082683419e-06 -2.1890164559390141e-05 0.054843314419816457 4.2740664749931953e-08 -4.7726862846438082e-08 0.81250000000000000 0.062500000000000000 0.81249492370439180 0.062478109835440609 
0.87500000000000000 0.0000000000000000 0.0000000000000000 -6.3686813044100237e-06 -2.3217394310916809e-05 0.018952766698673042 1.8178712589314039e-08 0.0000000000000000 0.87500000000000000 0.0000000000000000 0.87499363131869556 -2.3217394310916809e-05 
0.87500000000000000 0.062500000000000000 0.0000000000000000 -5.0869407823082593e-06 -2.3215379783364463e-05 0.031855305514830561 2.8423591841954815e-08 -3.7185989287752067e-08 0.87500000000000000 0.062500000000000000 0.87499491305921773 0.062476784620216642 
0.93750000000000000 0.0000000000000000 0.0000000000000000 -6.3586124103115577e-06 -2.4491981466475877e-05 0.0094299765560362670 7.0741078634245100e-09 0.0000000000000000 0.93750000000000000 0.0000000000000000 0.93749364138758973 -2.4491981466475877e-05 
0.93750000000000000 0.062500000000000000 0.0000000000000000 -5.0872393591836456e-06 -2.4493214800856681e-05 0.016637529661417110 2.2780883499487732e-08 -2.2583686161222294e-08 0.93750000000000000 0.062500000000000000 0.93749491276064079 0.062475506785199142 
1.0000000000000000 0.0000000000000000 0.0000000000000000 -6.3560000658790054e-06 -2.5744202452740254e-05 0.0061083716121095458 0.0000000000000000 0.0000000000000000 1.0000000000000000 0.0000000000000000 0.99999364399993407 -2.5744202452740254e-05 
1.0000000000000000 0.062500000000000000 0.0000000000000000 -5.0885218030385079e-06 -2.5741625383603325e-05 0.0094405360727039030 0.0000000000000000 -7.1889399764643564e-09 1.0000000000000000 0.062500000000000000 0.99999491147819697 0.062474258374616398 
0.062500000000000000 0.12500000000000000 0.0000000000000000 -1.8202945582487343e-07 -1.6115669652915696e-06 1.2467555505667265 7.7072006013776407e-08 4.2296463577638606e-07 0.062500000000000000 0.12500000000000000 0.062499817970544165 0.12499838843303469 
0.0000000000000000 0.12500000000000000 0.0000000000000000 0.0000000000000000 0.0000000000000000 1.2115926175157437 0.0000000000000000 5.4196352724678803e-07 0.0000000000000000 0.12500000000000000 0.0000000000000000 0.12500000000000000 
0.12500000000000000 0.12500000000000000 0.0000000000000000 -6.2857843839831135e-07 -3.4595869263355094e-06 1.0966130276272625 3.5301076685291991e-07 2.4384192301496938e-07 0.12500000000000000 0.12500000000000000 0.12499937142156160 0.12499654041307366 
0.18750000000000000 0.12500000000000000 0.0000000000000000 -1.2362841047915672e-06 -5.3769003373217709e-06 0.88755088304725671 3.2542923222084181e-07 9.3217007273786426e-08 0.18750000000000000 0.12500000000000000 0.18749876371589522 0.12499462309966268 
0.25000000000000000 0.12500000000000000 0.0000000000000000 -1.7987254960562605e-06 -7.2143380858161193e-06 0.71572029263329739 2.3205828816409356e-07 4.9966319583713232e-08 0.25000000000000000 0.12500000000000000 0.24999820127450392 0.12499278566191419 
0.31250000000000000 0.12500000000000000 0.0000000000000000 -2.2864436344890446e-06 -9.0047612120763203e-06 0.58430236508007682 1.8450390381490230e-07 3.4323952089178158e-08 0.31250000000000000 0.12500000000000000 0.31249771355636552 0.12499099523878794 
0.37500000000000000 0.12500000000000000 0.0000000000000000 -2.6959640218954234e-06 -1.0763652117651876e-05 0.47975719057422112 1.5037115036206246e-07 1.8732432099046859e-08 0.37500000000000000 0.12500000000000000 0.37499730403597814 0.12498923634788235 
0.43750000000000000 0.12500000000000000 0.0000000000000000 -3.0308463071552516e-06 -1.2492772223422641e-05 0.39286244908424051 1.2775875986768125e-07 4.4016683830944049e-09 0.43750000000000000 0.12500000000000000 0.43749696915369279 0.12498750722777659 
0.50000000000000000 0.12500000000000000 0.0000000000000000 -3.2969903478797777e-06 -1.4187077075166526e-05 0.31867288805589133 1.1011587645948760e-07 -9.1332139693873560e-09 0.50000000000000000 0.12500000000000000 0.49999670300965210 0.12498581292292484 
0.56250000000000000 0.12500000000000000 0.0000000000000000 -3.5011494838769551e-06 -1.5838718506858804e-05 0.25468432945397912 9.5095842624407916e-08 -2.1068755008284713e-08 0.56250000000000000 0.12500000000000000 0.56249649885051600 0.12498416128149314 
0.62500000000000000 0.12500000000000000 0.0000000000000000 -3.6504253261460251e-06 -1.7439261851975734e-05 0.19959073956938586 8.1514499668727107e-08 -3.0775341954826184e-08 0.62500000000000000 0.12500000000000000 0.62499634957467387 0.12498256073814802 
0.68750000000000000 0.12500000000000000 0.0000000000000000 -3.7521360987613267e-06 -1.8981034820452623e-05 0.15258053989502129 6.9101999512473848e-08 -3.7651852786082797e-08 0.68750000000000000 0.12500000000000000 0.68749624786390129 0.12498101896517955 
0.75000000000000000 0.12500000000000000 0.0000000000000000 -3.8138855892293212e-06 -2.0458146253267963e-05 0.11295473413743011 5.7625124230503746e-08 -4.1163713430050454e-08 0.75000000000000000 0.12500000000000000 0.74999618611441077 0.12497954185374673 
0.81250000000000000 0.12500000000000000 0.0000000000000000 -3.8438152813200372e-06 -2.1867514721725107e-05 0.079964846188759750 4.8411046338364712e-08 -4.0714575717555522e-08 0.81250000000000000 0.12500000000000000 0.81249615618471871 0.12497813248527830 
0.87500000000000000 0.12500000000000000 0.0000000000000000 -3.8510892534098574e-06 -2.3210160629058570e-05 0.052902393287305276 3.7472153889814919e-08 -3.6310511608513148e-08 0.87500000000000000 0.12500000000000000 0.87499614891074662 0.12497678983937095 
0.93750000000000000 0.12500000000000000 0.0000000000000000 -3.8466910829768378e-06 -2.4493011020961061e-05 0.031660020316188864 3.6700925810935736e-08 -2.7519139587987986e-08 0.93750000000000000 0.12500000000000000 0.93749615330891700 0.12497550698897904 
1.0000000000000000 0.12500000000000000 0.0000000000000000 -3.8445897303981498e-06 -2.5731760520182520e-05 0.018916127680317269 0.0000000000000000 -1.8492342747661653e-08 1.0000000000000000 0.12500000000000000 0.99999615541026954 0.12497426823947982 
0.062500000000000000 0.18750000000000000 0.0000000000000000 -9.7541830548058527e-08 -1.3879717244802353e-06 0.98497219104334210 2.3750877080615099e-09 3.9390706749207120e-07 0.062500000000000000 0.18750000000000000 0.062499902458169450 0.18749861202827553 
0.0000000000000000 0.18750000000000000 0.0000000000000000 0.0000000000000000 0.0000000000000000 0.92957692786875568 0.0000000000000000 4.3975285890878239e-07 0.0000000000000000 0.18750000000000000 0.0000000000000000 0.18750000000000000 
0.12500000000000000 0.18750000000000000 0.0000000000000000 -3.3227794053518872e-07 -3.0499615572804537e-06 0.92779169540810191 1.7404004534863841e-07 3.0856158997830934e-07 0.12500000000000000 0.18750000000000000 0.12499966772205946 0.18749695003844272 
0.18750000000000000 0.18750000000000000 0.0000000000000000 -6.8360856040606435e-07 -4.8708888109036911e-06 0.80674119933043043 2.1939082400930180e-07 1.7253309465299975e-07 0.18750000000000000 0.18750000000000000 0.18749931639143960 0.18749512911118907 
0.25000000000000000 0.18750000000000000 0.0000000000000000 -1.0871218351727270e-06 -6.7412051202890016e-06 0.67244800835660146 2.0116937915303365e-07 9.4170215074519181e-08 0.25000000000000000 0.18750000000000000 0.24999891287816481 0.18749325879487969 
0.31250000000000000 0.18750000000000000 0.0000000000000000 -1.4649738710492193e-06 -8.5942380439228617e-06 0.55768295622186959 1.6367555091102380e-07 5.9659493156648361e-08 0.31250000000000000 0.18750000000000000 0.31249853502612895 0.18749140576195608 
0.37500000000000000 0.18750000000000000 0.0000000000000000 -1.7931368817436120e-06 -1.0420762726066547e-05 0.46446119467006325 1.3305773352832929e-07 3.6172504638969008e-08 0.37500000000000000 0.18750000000000000 0.37499820686311830 0.18748957923727394 
0.43750000000000000 0.18750000000000000 0.0000000000000000 -2.0652493916689018e-06 -1.2215137223787410e-05 0.38745541679212209 1.1190998069869164e-07 1.7649339632275231e-08 0.43750000000000000 0.18750000000000000 0.43749793475060833 0.18748778486277620 
0.50000000000000000 0.18750000000000000 0.0000000000000000 -2.2818500502709341e-06 -1.3969808413593012e-05 0.32230397319933873 9.5701118643101013e-08 1.1010036386218610e-09 0.50000000000000000 0.18750000000000000 0.49999771814994975 0.18748603019158641 
0.56250000000000000 0.18750000000000000 0.0000000000000000 -2.4463839951872291e-06 -1.5676012091727237e-05 0.26632065067275035 8.2678522606191671e-08 -1.3395202628788648e-08 0.56250000000000000 0.18750000000000000 0.56249755361600495 0.18748432398790826 
0.62500000000000000 0.18750000000000000 0.0000000000000000 -2.5635685134972612e-06 -1.7324931897541057e-05 0.21788989932435154 7.1604108524639719e-08 -2.5631642129911507e-08 0.62500000000000000 0.18750000000000000 0.62499743643148653 0.18748267506810246 
0.68750000000000000 0.18750000000000000 0.0000000000000000 -2.6387559120268533e-06 -1.8908609759619356e-05 0.17589345623154276 6.2187360690948077e-08 -3.5241833240682998e-08 0.68750000000000000 0.18750000000000000 0.68749736124408800 0.18748109139024038 
0.75000000000000000 0.18750000000000000 0.0000000000000000 -2.6778240010148211e-06 -2.0420673331368222e-05 0.13934326510809927 5.4168633135976183e-08 -4.1900843061135932e-08 0.75000000000000000 0.18750000000000000 0.74999732217599913 0.18747957932666862 
0.81250000000000000 0.18750000000000000 0.0000000000000000 -2.6874581509746339e-06 -2.1857038482649292e-05 0.10723037452307561 4.8836633220196718e-08 -4.5167516644041775e-08 0.81250000000000000 0.18750000000000000 0.81249731254184898 0.18747814296151735 
0.87500000000000000 0.18750000000000000 0.0000000000000000 -2.6758336146146169e-06 -2.3216733465369440e-05 0.078685141334373904 4.1579035274689747e-08 -4.5120647715055825e-08 0.87500000000000000 0.18750000000000000 0.87499732416638543 0.18747678326653464 
0.93750000000000000 0.18750000000000000 0.0000000000000000 -2.6537773490919660e-06 -2.4503003384319059e-05 0.053830707565978748 4.5681339649424729e-08 -4.0480367665730326e-08 0.93750000000000000 0.18750000000000000 0.93749734622265091 0.18747549699661567 
1.0000000000000000 0.18750000000000000 0.0000000000000000 -2.6365206998819276e-06 -2.5725097565256423e-05 0.036518633911395773 0.0000000000000000 -3.7008135264311307e-08 1.0000000000000000 0.18750000000000000 0.99999736347930013 0.18747427490243473 
0.062500000000000000 0.25000000000000000 0.0000000000000000 -5.4101799389583244e-08 -1.2728289431080663e-06 0.75758951234477256 -4.7814289924314410e-08 3.3092022311929958e-07 0.062500000000000000 0.25000000000000000 0.062499945898200619 0.24999872717105689 
0.0000000000000000 0.25000000000000000 0.0000000000000000 0.0000000000000000 0.0000000000000000 0.69813683037316443 0.0000000000000000 3.5709031950552930e-07 0.0000000000000000 0.25000000000000000 0.0000000000000000 0.25000000000000000 
0.12500000000000000 0.25000000000000000 0.0000000000000000 -1.7464531274462159e-07 -2.8236655652526704e-06 0.74220323377750963 8.2488827096875502e-08 2.8863817240959730e-07 0.12500000000000000 0.25000000000000000 0.12499982535468725 0.24999717633443472 
0.18750000000000000 0.25000000000000000 0.0000000000000000 -3.6514453468461971e-07 -4.5646013113677128e-06 0.68081607314122594 1.2154184877810614e-07 2.1783227029815405e-07 0.18750000000000000 0.25000000000000000 0.18749963485546531 0.24999543539868863 
0.25000000000000000 0.25000000000000000 0.0000000000000000 -6.0388980459997463e-07 -6.4084338968830205e-06 0.59632039686767901 1.4315102282897141e-07 1.4531855484584356e-07 0.25000000000000000 0.25000000000000000 0.24999939611019539 0.24999359156610312 
0.31250000000000000 0.25000000000000000 0.0000000000000000 -8.5363024219634444e-07 -8.2870513604727583e-06 0.51042644138557358 1.2922074956145564e-07 9.1422264897134894e-08 0.31250000000000000 0.25000000000000000 0.31249914636975779 0.24999171294863953 
0.37500000000000000 0.25000000000000000 0.0000000000000000 -1.0805868431860731e-06 -1.0158045182886734e-05 0.43506128377126191 1.0943454944983243e-07 5.8253793664271226e-08 0.37500000000000000 0.25000000000000000 0.37499891941315683 0.24998984195481713 
0.43750000000000000 0.25000000000000000 0.0000000000000000 -1.2705345408317606e-06 -1.2001917038153080e-05 0.37143884705092584 9.2426611983965501e-08 3.4045470238289998e-08 0.43750000000000000 0.25000000000000000 0.43749872946545915 0.24998799808296182 
0.50000000000000000 0.25000000000000000 0.0000000000000000 -1.4190140071018284e-06 -1.3805415003384992e-05 0.31751710081350204 7.8898127662773549e-08 1.4239396262490315e-08 0.50000000000000000 0.25000000000000000 0.49999858098599287 0.24998619458499660 
0.56250000000000000 0.25000000000000000 0.0000000000000000 -1.5262255116060804e-06 -1.5557354861926807e-05 0.27124048086725722 6.8221188203454025e-08 -2.5990831349840318e-09 0.56250000000000000 0.25000000000000000 0.56249847377448836 0.24998444264513808 
0.62500000000000000 0.25000000000000000 0.0000000000000000 -1.5945907756297489e-06 -1.7247832733901043e-05 0.23107537432385183 5.9546425696881358e-08 -1.6996917051933327e-08 0.62500000000000000 0.25000000000000000 0.62499840540922424 0.24998275216726609 
0.68750000000000000 0.25000000000000000 0.0000000000000000 -1.6276647564155314e-06 -1.8868250651850630e-05 0.19582646065385578 5.2691912710836149e-08 -2.9018314884207853e-08 0.68750000000000000 0.25000000000000000 0.68749837233524358 0.24998113174934813 
0.75000000000000000 0.25000000000000000 0.0000000000000000 -1.6298107018580118e-06 -2.0411510021878858e-05 0.16438461841382113 4.7436808866489097e-08 -3.8658256466504570e-08 0.75000000000000000 0.25000000000000000 0.74999837018929816 0.24997958848997812 
0.81250000000000000 0.25000000000000000 0.0000000000000000 -1.6064159967975448e-06 -2.1872233651547817e-05 0.13560150304507926 4.5045141159027305e-08 -4.5717547090633390e-08 0.81250000000000000 0.25000000000000000 0.81249839358400322 0.24997812776634845 
0.87500000000000000 0.25000000000000000 0.0000000000000000 -1.5646015212104351e-06 -2.3246997862918825e-05 0.10845981157041797 4.0859614733532662e-08 -5.0407035888329559e-08 0.87500000000000000 0.25000000000000000 0.87499843539847877 0.24997675300213709 
0.93750000000000000 0.25000000000000000 0.0000000000000000 -1.5144531781329872e-06 -2.4534579920979452e-05 0.083017912287177087 4.8627274133622985e-08 -5.1092240282259901e-08 0.93750000000000000 0.25000000000000000 0.93749848554682191 0.24997546542007901 
1.0000000000000000 0.25000000000000000 0.0000000000000000 -1.4707681726803275e-06 -2.5736284808199837e-05 0.062836508782604064 0.0000000000000000 -5.2552814730968087e-08 1.0000000000000000 0.25000000000000000 0.99999852923182730 0.24997426371519180 
0.062500000000000000 0.31250000000000000 0.0000000000000000 -2.8230652365435671e-08 -1.2197880662477174e-06 0.56204493351730844 -7.0892981333892469e-08 2.9060381967156145e-07 0.062500000000000000 0.31250000000000000 0.062499971769347636 0.31249878021193384 
0.0000000000000000 0.31250000000000000 0.0000000000000000 0.0000000000000000 0.0000000000000000 0.50141313342252303 0.0000000000000000 3.0602459580914075e-07 0.0000000000000000 0.31250000000000000 0.0000000000000000 0.31250000000000000 
0.12500000000000000 0.31250000000000000 0.0000000000000000 -7.8479664649721583e-08 -2.7105655181597123e-06 0.56963312298436919 3.3920241084974818e-08 2.6323621368087435e-07 0.12500000000000000 0.31250000000000000 0.12499992152033534 0.31249728943448180 
0.18750000000000000 0.31250000000000000 0.0000000000000000 -1.6167973780710347e-07 -4.4007189835853125e-06 0.54443074313469408 5.8850222948229699e-08 2.1579091997229419e-07 0.18750000000000000 0.31250000000000000 0.18749983832026218 0.31249559928101639 
0.25000000000000000 0.31250000000000000 0.0000000000000000 -2.7312739906477044e-07 -6.2170547597040132e-06 0.49950189878744783 8.2301376410718617e-08 1.6252670955633062e-07 0.25000000000000000 0.31250000000000000 0.24999972687260094 0.31249378294524027 
0.31250000000000000 0.31250000000000000 0.0000000000000000 -3.9720792453878170e-07 -8.0967054553420293e-06 0.44613910658274963 8.6055050144174981e-08 1.1291422523261410e-07 0.31250000000000000 0.31250000000000000 0.31249960279207545 0.31249190329454463 
0.37500000000000000 0.31250000000000000 0.0000000000000000 -5.1477435502718602e-07 -9.9916396146784362e-06 0.39356067413817658 7.9507850218689135e-08 7.4668737466728181e-08 0.37500000000000000 0.31250000000000000 0.37499948522564491 0.31249000836038526 
0.43750000000000000 0.31250000000000000 0.0000000000000000 -6.1084267220417564e-07 -1.1869426100987798e-05 0.34654577395904207 6.9170101714619436e-08 4.6118490880105998e-08 0.43750000000000000 0.31250000000000000 0.43749938915732772 0.31248813057389896 
0.50000000000000000 0.31250000000000000 0.0000000000000000 -6.7847842867726418e-07 -1.3709652654366613e-05 0.30584506016875629 5.9653659168068654e-08 2.3547007971060760e-08 0.50000000000000000 0.31250000000000000 0.49999932152157139 0.31248629034734560 
0.56250000000000000 0.31250000000000000 0.0000000000000000 -7.1569495242832761e-07 -1.5497634483321508e-05 0.27069006551597985 5.1751870204848550e-08 4.7144388966726364e-09 0.56250000000000000 0.31250000000000000 0.56249928430504770 0.31248450236551667 
0.62500000000000000 0.31250000000000000 0.0000000000000000 -7.2315684046986299e-07 -1.7221772431419350e-05 0.24005387941697751 4.5426869343997869e-08 -1.1431322507914668e-08 0.62500000000000000 0.31250000000000000 0.62499927684315948 0.31248277822756859 
0.68750000000000000 0.31250000000000000 0.0000000000000000 -7.0294574033582102e-07 -1.8872513474915261e-05 0.21293210477209457 4.0736474063829340e-08 -2.5367290957132250e-08 0.68750000000000000 0.31250000000000000 0.68749929705425972 0.31248112748652507 
0.75000000000000000 0.31250000000000000 0.0000000000000000 -6.5809215219169871e-07 -2.0441871245786480e-05 0.18828488792610684 3.7600852460617820e-08 -3.7386652924365154e-08 0.75000000000000000 0.31250000000000000 0.74999934190784778 0.31247955812875422 
0.81250000000000000 0.31250000000000000 0.0000000000000000 -5.9268580882215774e-07 -2.1923089841571821e-05 0.16496177755910760 3.7262520173522170e-08 -4.7530766805116114e-08 0.81250000000000000 0.31250000000000000 0.81249940731419112 0.31247807691015844 
0.87500000000000000 0.31250000000000000 0.0000000000000000 -5.1249671839401762e-07 -2.3310259465737506e-05 0.14183803828259298 3.5522227265342628e-08 -5.6124465120171548e-08 0.87500000000000000 0.31250000000000000 0.87499948750328149 0.31247668974053427 
0.93750000000000000 0.31250000000000000 0.0000000000000000 -4.2609059649891857e-07 -2.4597741775168211e-05 0.11866207285527509 4.5943310230110181e-08 -6.1271877824165769e-08 0.93750000000000000 0.31250000000000000 0.93749957390940353 0.31247540225822484 
1.0000000000000000 0.31250000000000000 0.0000000000000000 -3.4631372444433923e-07 -2.5779220508114083e-05 0.097449030971293468 0.0000000000000000 -6.7083304589526881e-08 1.0000000000000000 0.31250000000000000 0.99999965368627552 0.31247422077949188 
0.062500000000000000 0.37500000000000000 0.0000000000000000 -1.0934762156800193e-08 -1.2057795882043978e-06 0.38914907464857956 -8.8388291573564913e-08 2.6270457544992761e-07 0.062500000000000000 0.37500000000000000 0.062499989065237842 0.37499879422041177 
0.0000000000000000 0.37500000000000000 0.0000000000000000 0.0000000000000000 0.0000000000000000 0.32682953711524626 0.0000000000000000 2.7563877197315455e-07 0.0000000000000000 0.37500000000000000 0.0000000000000000 0.37500000000000000 
0.12500000000000000 0.37500000000000000 0.0000000000000000 -1.2709708323482892e-08 -2.6740411575854631e-06 0.41277123143145550 -1.2443488086815744e-09 2.3990114605348399e-07 0.12500000000000000 0.37500000000000000 0.12499998729029167 0.37499732595884239 
0.18750000000000000 0.37500000000000000 0.0000000000000000 -1.7501801303206825e-08 -4.3417248941722503e-06 0.41237243558860853 1.4066205983312190e-08 2.0442432133242073e-07 0.18750000000000000 0.37500000000000000 0.18749998249819869 0.37499565827510578 
0.25000000000000000 0.37500000000000000 0.0000000000000000 -2.8669679666519560e-08 -6.1436764907639562e-06 0.39663192043639989 3.5144069503385135e-08 1.6411732345345834e-07 0.25000000000000000 0.37500000000000000 0.24999997133032034 0.37499385632350929 
0.31250000000000000 0.37500000000000000 0.0000000000000000 -4.2760172468624057e-08 -8.0217975672110630e-06 0.37172175080213682 4.3815554863585053e-08 1.2294483025675187e-07 0.31250000000000000 0.37500000000000000 0.31249995723982754 0.37499197820243285 
0.37500000000000000 0.37500000000000000 0.0000000000000000 -5.2414848781134400e-08 -9.9284733329263399e-06 0.34300460415703471 4.6091134387616586e-08 8.5937754401294650e-08 0.37500000000000000 0.37500000000000000 0.37499994758515115 0.37499007152666713 
0.43750000000000000 0.37500000000000000 0.0000000000000000 -4.9701693797579387e-08 -1.1827535226195897e-05 0.31462519489951879 4.3046664604547538e-08 5.5476996248189785e-08 0.43750000000000000 0.37500000000000000 0.43749995029830618 0.37498817246477373 
0.50000000000000000 0.37500000000000000 0.0000000000000000 -2.8983331989256524e-08 -1.3693195135303255e-05 0.28875739316739774 3.8331288459887744e-08 3.0895361997203067e-08 0.50000000000000000 0.37500000000000000 0.49999997101666799 0.37498630680486472 
0.56250000000000000 0.37500000000000000 0.0000000000000000 1.2118934010444912e-08 -1.5507366212969836e-05 0.26591718098773132 3.3654558657306180e-08 1.0437520242377189e-08 0.56250000000000000 0.37500000000000000 0.56250001211893397 0.37498449263378703 
0.62500000000000000 0.37500000000000000 0.0000000000000000 7.3790610288298956e-08 -1.7256612602537137e-05 0.24583162243047810 2.9733990366075371e-08 -7.1011751485641383e-09 0.62500000000000000 0.37500000000000000 0.62500007379061018 0.37498274338739751 
0.68750000000000000 0.37500000000000000 0.0000000000000000 1.5494770715035199e-07 -1.8930347037102600e-05 0.22791418100445041 2.6936752483024504e-08 -2.2497819192917560e-08 0.68750000000000000 0.37500000000000000 0.68750015494770711 0.37498106965296291 
0.75000000000000000 0.37500000000000000 0.0000000000000000 2.5368255466053877e-07 -2.0519731450180706e-05 0.21137472881580729 2.5405673214657959e-08 -3.6298926665865811e-08 0.75000000000000000 0.37500000000000000 0.75000025368255463 0.37497948026854983 
0.81250000000000000 0.37500000000000000 0.0000000000000000 3.6723621122492978e-07 -2.2016807248152862e-05 0.19519784870964915 2.6366926002270932e-08 -4.8783728543690313e-08 0.81250000000000000 0.37500000000000000 0.81250036723621122 0.37497798319275183 
0.87500000000000000 0.37500000000000000 0.0000000000000000 4.9152245884393134e-07 -2.3413552961763998e-05 0.17820970988505927 2.6496357551996227e-08 -6.0360640600777743e-08 0.87500000000000000 0.37500000000000000 0.87500049152245885 0.37497658644703824 