# For a description of the Tecplot format see the Tecplot User's guide.
#
Variables=x,y,z,s_u,s_v,s_p,x,y,ref_u,ref_v,u,v
Zone f=fepoint, n=289, e=512, et=quadrilateral, c=black
0.00000 0.00000 0.00000 0.0000000000000000 0.0000000000000000 5.3285550884608686 0.0000000000000000 0.0000000000000000 0.0000000000000000 0.0000000000000000 0.0000000000000000 0.0000000000000000 
0.062500000000000000 0.0000000000000000 0.0000000000000000 -6.5852357048795194e-07 -2.0274572747655953e-06 2.8896977153787646 3.5932061855705716e-06 0.0000000000000000 0.062500000000000000 0.0000000000000000 0.062499341476429514 -2.0274572747655953e-06 
0.062500000000000000 0.062500000000000000 0.0000000000000000 -1.8236162700458416e-08 -1.4349473613498547e-06 1.9080124402588232 1.3170552993774387e-06 1.3605262871543365e-06 0.062500000000000000 0.062500000000000000 0.062499981763837302 0.062498565052638642 
0.0000000000000000 0.062500000000000000 0.0000000000000000 -1.3041327611462188e-25 0.0000000000000000 0.95259183937328806 1.3041327610277520e-22 2.2265230638578615e-06 0.0000000000000000 0.062500000000000000 -1.3041327611462188e-25 0.062500000000000000 
0.12500000000000000 0.0000000000000000 0.0000000000000000 -1.2153169434879128e-06 -3.7967936845766454e-06 2.4512199691631160 3.0510585275694059e-06 0.0000000000000000 0.12500000000000000 0.0000000000000000 0.12499878468305652 -3.7967936845766454e-06 
0.12500000000000000 0.062500000000000000 0.0000000000000000 -5.3053114223967034e-07 -3.2783250635618336e-06 0.28879199566008529 -1.1366875548654805e-06 -4.7757034699832033e-07 0.12500000000000000 0.062500000000000000 0.12499946946885776 0.062496721674936438 
0.18750000000000000 0.0000000000000000 0.0000000000000000 -1.6796528914459422e-06 -5.4069016886760001e-06 2.0636947168303350 2.4707132242799842e-06 0.0000000000000000 0.18750000000000000 0.0000000000000000 0.18749832034710856 -5.4069016886760001e-06 
0.18750000000000000 0.062500000000000000 0.0000000000000000 -9.8758415339417937e-07 -4.9784729010133744e-06 0.23766660049489965 -5.9659041010475021e-07 6.6686966032064461e-08 0.18750000000000000 0.062500000000000000 0.18749901241584663 0.062495021527098980 
0.25000000000000000 0.0000000000000000 0.0000000000000000 -2.0630650392630869e-06 -6.8954367667008196e-06 1.7319515632278153 2.1836535157997626e-06 0.0000000000000000 0.25000000000000000 0.0000000000000000 0.24999793693496072 -6.8954367667008196e-06 
0.25000000000000000 0.062500000000000000 0.0000000000000000 -1.3635913670316535e-06 -6.5433241995285993e-06 0.18027746016376986 -5.9814659599032877e-07 -4.7235002343795678e-08 0.25000000000000000 0.062500000000000000 0.24999863640863298 0.062493456675800474 
0.31250000000000000 0.0000000000000000 0.0000000000000000 -2.3742831550712197e-06 -8.2922340532897257e-06 1.4417193488946254 1.9247832171741824e-06 0.0000000000000000 0.31250000000000000 0.0000000000000000 0.31249762571684492 -8.2922340532897257e-06 
0.31250000000000000 0.062500000000000000 0.0000000000000000 -1.6708990894741311e-06 -8.0076886171552867e-06 0.13403625261031168 -5.1984971685570732e-07 -1.6020641829239465e-08 0.31250000000000000 0.062500000000000000 0.31249832910091052 0.062491992311382853 
0.37500000000000000 0.0000000000000000 0.0000000000000000 -2.6222012866898523e-06 -9.6126992154371864e-06 1.1854249807178745 1.7204994727733244e-06 0.0000000000000000 0.37500000000000000 0.0000000000000000 0.37499737779871328 -9.6126992154371864e-06 
0.37500000000000000 0.062500000000000000 0.0000000000000000 -1.9174980123356693e-06 -9.3873278916900857e-06 0.094004165307619569 -4.7821722931203313e-07 -2.5856642233580849e-08 0.37500000000000000 0.062500000000000000 0.37499808250198768 0.062490612672108307 
0.43750000000000000 0.0000000000000000 0.0000000000000000 -2.8147807274342198e-06 -1.0866050620098651e-05 0.95858179498788454 1.5400220884868427e-06 0.0000000000000000 0.43750000000000000 0.0000000000000000 0.43749718521927256 -1.0866050620098651e-05 
0.43750000000000000 0.062500000000000000 0.0000000000000000 -2.1109312946173051e-06 -1.0692196643202525e-05 0.060827297494176737 -4.3667441056181754e-07 -2.9574177937405606e-08 0.43750000000000000 0.062500000000000000 0.43749788906870540 0.062489307803356799 
0.50000000000000000 0.0000000000000000 0.0000000000000000 -2.9596923490624758e-06 -1.2057416477742645e-05 0.75841641807142368 1.3757390876063384e-06 0.0000000000000000 0.50000000000000000 0.0000000000000000 0.49999704030765096 -1.2057416477742645e-05 
0.50000000000000000 0.062500000000000000 0.0000000000000000 -2.2582333966157119e-06 -1.1927754388432562e-05 0.033844670266737507 -3.9977991878874175e-07 -3.5823628177133539e-08 0.50000000000000000 0.062500000000000000 0.49999774176660333 0.062488072245611571 
0.56250000000000000 0.0000000000000000 0.0000000000000000 -3.0643524842064315e-06 -1.3189797931079694e-05 0.58329796154657509 1.2199694035757527e-06 0.0000000000000000 0.56250000000000000 0.0000000000000000 0.56249693564751579 -1.3189797931079694e-05 
0.56250000000000000 0.062500000000000000 0.0000000000000000 -2.3661746212033011e-06 -1.3097237036746841e-05 0.012783008736481083 -3.6346388325076474e-07 -4.1095471810313599e-08 0.56250000000000000 0.062500000000000000 0.56249763382537876 0.062486902762963252 
0.62500000000000000 0.0000000000000000 0.0000000000000000 -3.1359925511613808e-06 -1.4265072399218397e-05 0.43227307548345334 1.0685944483534643e-06 0.0000000000000000 0.62500000000000000 0.0000000000000000 0.62499686400744880 -1.4265072399218397e-05 
0.62500000000000000 0.062500000000000000 0.0000000000000000 -2.4413487279164571e-06 -1.4202703447084073e-05 -0.0026624282014116041 -3.2697969080727986e-07 -4.5592173069788846e-08 0.62500000000000000 0.062500000000000000 0.62499755865127204 0.062485797296552910 
0.68750000000000000 0.0000000000000000 0.0000000000000000 -3.1816146619794317e-06 -1.5284589059887668e-05 0.30480811652100809 9.1839991546888512e-07 0.0000000000000000 0.68750000000000000 0.0000000000000000 0.68749681838533805 -1.5284589059887668e-05 
0.68750000000000000 0.062500000000000000 0.0000000000000000 -2.4901979144511511e-06 -1.5245731555706551e-05 -0.012754736528534131 -2.8949218556032745e-07 -4.8354145529990011e-08 0.68750000000000000 0.062500000000000000 0.68749750980208557 0.062484754268444291 
0.75000000000000000 0.0000000000000000 0.0000000000000000 -3.2078774328560442e-06 -1.6249434565916824e-05 0.20062710061486697 7.6791434451553192e-07 0.0000000000000000 0.75000000000000000 0.0000000000000000 0.74999679212256709 -1.6249434565916824e-05 
0.75000000000000000 0.062500000000000000 0.0000000000000000 -2.5189538335994305e-06 -1.6227739283768106e-05 -0.017763646639665603 -2.5082651999179019e-07 -5.1750095864676449e-08 0.75000000000000000 0.062500000000000000 0.74999748104616637 0.062483772260716226 
0.81250000000000000 0.0000000000000000 0.0000000000000000 -3.2208435629851463e-06 -1.7160383129311180e-05 0.11956982234754408 6.1300354629769761e-07 0.0000000000000000 0.81250000000000000 0.0000000000000000 0.81249677915643703 -1.7160383129311180e-05 
0.81250000000000000 0.062500000000000000 0.0000000000000000 -2.5335057509118469e-06 -1.7150140072792598e-05 -0.017920444056990937 -2.1076890474400028e-07 -4.8371854837213769e-08 0.81250000000000000 0.062500000000000000 0.81249746649424914 0.062482849859927199 
0.87500000000000000 0.0000000000000000 0.0000000000000000 -3.2257777474216140e-06 -1.8017838127441765e-05 0.061855883339187789 4.5840307922239001e-07 0.0000000000000000 0.87500000000000000 0.0000000000000000 0.87499677422225253 -1.8017838127441765e-05 
0.87500000000000000 0.062500000000000000 0.0000000000000000 -2.5391267471450155e-06 -1.8014001400650094e-05 -0.013569664598295320 -1.7038314199928781e-07 -6.4974986156160609e-08 0.87500000000000000 0.062500000000000000 0.87499746087325281 0.062481985998599353 
0.93750000000000000 0.0000000000000000 0.0000000000000000 -3.2263991012796417e-06 -1.8820492838429361e-05 0.024747684357732631 2.8069665534676810e-07 0.0000000000000000 0.93750000000000000 0.0000000000000000 0.93749677360089867 -1.8820492838429361e-05 
0.93750000000000000 0.062500000000000000 0.0000000000000000 -2.5402745743154562e-06 -1.8819999565319821e-05 -0.0066474205877018215 -1.2879023375804579e-07 -2.1653713271315275e-08 0.93750000000000000 0.062500000000000000 0.93749745972542564 0.062481180000434677 
1.0000000000000000 0.0000000000000000 0.0000000000000000 -3.2254570548470678e-06 -1.9573459363960973e-05 0.043968583813771861 0.0000000000000000 0.0000000000000000 1.0000000000000000 0.0000000000000000 0.99999677454294511 -1.9573459363960973e-05 
1.0000000000000000 0.062500000000000000 0.0000000000000000 -2.5401147940343291e-06 -1.9572537453569522e-05 0.011481594745907131 0.0000000000000000 -1.4958295993301789e-07 1.0000000000000000 0.062500000000000000 0.99999745988520594 0.062480427462546430 
0.062500000000000000 0.12500000000000000 0.0000000000000000 -1.5664222579281113e-09 -1.4007083624736467e-06 0.43628223649407744 -4.0647280404624061e-07 -9.9768703900621372e-07 0.062500000000000000 0.12500000000000000 0.062499998433577737 0.12499859929163752 
0.0000000000000000 0.12500000000000000 0.0000000000000000 -3.2476113889083808e-26 0.0000000000000000 0.68751178923733292 3.2476113866214300e-23 2.8348030417940966e-06 0.0000000000000000 0.12500000000000000 -3.2476113889083808e-26 0.12500000000000000 
0.12500000000000000 0.12500000000000000 0.0000000000000000 -2.5586508736572537e-08 -2.8179339430626408e-06 1.5948669189713784 1.4726841450003800e-06 1.3622629748748351e-06 0.12500000000000000 0.12500000000000000 0.12499997441349127 0.12499718206605694 
0.18750000000000000 0.12500000000000000 0.0000000000000000 -4.2638098328590936e-07 -4.5797478690820566e-06 0.32164095231252848 4.1624115391867858e-08 -4.3597629754350767e-07 0.18750000000000000 0.12500000000000000 0.18749957361901670 0.12499542025213094 
0.25000000000000000 0.12500000000000000 0.0000000000000000 -7.7156553935168817e-07 -6.2163568603828022e-06 0.29462967728865319 2.8952421182655396e-07 -1.3595111604730161e-08 0.25000000000000000 0.12500000000000000 0.24999922843446062 0.12499378364313962 
0.31250000000000000 0.12500000000000000 0.0000000000000000 -1.0540273837468740e-06 -7.7420114718474653e-06 0.23873172379868848 1.9225500733974457e-07 -8.5488247096899100e-08 0.31250000000000000 0.12500000000000000 0.31249894597261624 0.12499225798852816 
0.37500000000000000 0.12500000000000000 0.0000000000000000 -1.2816196254437361e-06 -9.1760433508244187e-06 0.19444752234177196 1.9275025629872812e-07 -6.1382329486107155e-08 0.37500000000000000 0.12500000000000000 0.37499871838037452 0.12499082395664918 
0.43750000000000000 0.12500000000000000 0.0000000000000000 -1.4606214630007537e-06 -1.0528534937840253e-05 0.15528642062778117 1.7237624940710422e-07 -6.2946222939433202e-08 0.43750000000000000 0.12500000000000000 0.43749853937853705 0.12498947146506216 
0.50000000000000000 0.12500000000000000 0.0000000000000000 -1.5971102357343387e-06 -1.1805313869921283e-05 0.12168954653877173 1.5948978645036938e-07 -6.0619200783725221e-08 0.50000000000000000 0.12500000000000000 0.49999840288976433 0.12498819468613008 
0.56250000000000000 0.12500000000000000 0.0000000000000000 -1.6969505092022136e-06 -1.3009769162871885e-05 0.093045380990949722 1.4640809606803448e-07 -5.9970032060444136e-08 0.56250000000000000 0.12500000000000000 0.56249830304949089 0.12498699023083713 
0.62500000000000000 0.12500000000000000 0.0000000000000000 -1.7659322287602478e-06 -1.4144067201413507e-05 0.069116563542166512 1.3451975199680011e-07 -5.8995495649783057e-08 0.62500000000000000 0.12500000000000000 0.62499823406777122 0.12498585593279858 
0.68750000000000000 0.12500000000000000 0.0000000000000000 -1.8097938308057021e-06 -1.5209892939644905e-05 0.049704098634458536 1.2319600917661639e-07 -5.7207171743166494e-08 0.68750000000000000 0.12500000000000000 0.68749819020616920 0.12498479010706036 
0.75000000000000000 0.12500000000000000 0.0000000000000000 -1.8342024513531505e-06 -1.6208849064784689e-05 0.034670921939096745 1.1243547882619934e-07 -5.6821272114605156e-08 0.75000000000000000 0.12500000000000000 0.74999816579754863 0.12498379115093523 
0.81250000000000000 0.12500000000000000 0.0000000000000000 -1.8446569698319382e-06 -1.7142691228729436e-05 0.023996329891335638 1.0176922329922589e-07 -4.9291876062055522e-08 0.81250000000000000 0.12500000000000000 0.81249815534303027 0.12498285730877128 
0.87500000000000000 0.12500000000000000 0.0000000000000000 -1.8463205532604742e-06 -1.8013069260934111e-05 0.017622760963445588 9.1507583254237545e-08 -6.7141843187039929e-08 0.87500000000000000 0.12500000000000000 0.87499815367944678 0.12498198693073907 
0.93750000000000000 0.12500000000000000 0.0000000000000000 -1.8437645969461609e-06 -1.8821722126648847e-05 0.013785807187714530 8.5478050263572806e-08 6.1247746499631710e-10 0.93750000000000000 0.12500000000000000 0.93749815623540300 0.12498117827787335 
1.0000000000000000 0.12500000000000000 0.0000000000000000 -1.8400431064047897e-06 -1.9573887112943218e-05 0.044327695534064869 0.0000000000000000 -1.8007059600502030e-07 1.0000000000000000 0.12500000000000000 0.99999815995689356 0.12498042611288705 
0.062500000000000000 0.18750000000000000 0.0000000000000000 3.9229019949618439e-09 -1.3995387527995657e-06 0.38812865177410449 1.2641639112240367e-07 -6.3217595891156446e-07 0.062500000000000000 0.18750000000000000 0.062500003922901989 0.18749860046124719 
0.0000000000000000 0.18750000000000000 0.0000000000000000 -1.7199148926544264e-24 0.0000000000000000 0.26820414941348231 1.8836146049713793e-21 2.4448852782923024e-06 0.0000000000000000 0.18750000000000000 -1.7199148926544264e-24 0.18750000000000000 
0.12500000000000000 0.18750000000000000 0.0000000000000000 6.0895561919289376e-09 -2.7978800718991422e-06 0.36133156691279994 -3.3364604368042492e-07 1.6834132689986040e-08 0.12500000000000000 0.18750000000000000 0.12500000608955619 0.18749720211992812 
0.18750000000000000 0.18750000000000000 0.0000000000000000 1.6343691687682526e-10 -4.2299036945728704e-06 1.2756929821992313 9.4281446466237993e-07 9.0457736397622266e-07 0.18750000000000000 0.18750000000000000 0.18750000016343693 0.18749577009630539 
0.25000000000000000 0.18750000000000000 0.0000000000000000 -2.9472908539194084e-07 -5.9220418915800226e-06 0.27657292959413410 -1.9028839990077023e-07 -3.0497742146215678e-07 0.25000000000000000 0.18750000000000000 0.24999970527091461 0.18749407795810843 
0.31250000000000000 0.18750000000000000 0.0000000000000000 -5.4187392841390861e-07 -7.5034942731457787e-06 0.26058433210339449 4.7526735511086205e-08 6.5510984119492668e-09 0.31250000000000000 0.18750000000000000 0.31249945812607161 0.18749249650572686 
0.37500000000000000 0.18750000000000000 0.0000000000000000 -7.4006613518929576e-07 -8.9862076089298492e-06 0.20958473024128210 -1.2033102645609267e-08 -6.0628011956248137e-08 0.37500000000000000 0.18750000000000000 0.37499925993386479 0.18749101379239108 
0.43750000000000000 0.18750000000000000 0.0000000000000000 -8.9503807562067351e-07 -1.0381896966373280e-05 0.17103948639395963 1.9878480689989169e-09 -4.3886272630980982e-08 0.43750000000000000 0.18750000000000000 0.43749910496192440 0.18748961810303363 
0.50000000000000000 0.18750000000000000 0.0000000000000000 -1.0117632587365042e-06 -1.1696372583358659e-05 0.13734874608244385 -2.3924130069812668e-09 -4.8970913353360101e-08 0.50000000000000000 0.18750000000000000 0.49999898823674122 0.18748830362741664 
0.56250000000000000 0.18750000000000000 0.0000000000000000 -1.0952382361601063e-06 -1.2933119694853685e-05 0.10890601835376253 -1.6529451470276093e-09 -4.9347243491143266e-08 0.56250000000000000 0.18750000000000000 0.56249890476176378 0.18748706688030514 
0.62500000000000000 0.18750000000000000 0.0000000000000000 -1.1504855229656623e-06 -1.4094301275741062e-05 0.084911783762233739 -1.5964662150353520e-09 -5.0795485659254906e-08 0.62500000000000000 0.18750000000000000 0.62499884951447704 0.18748590569872425 
0.68750000000000000 0.18750000000000000 0.0000000000000000 -1.1825951365215964e-06 -1.5181596409716495e-05 0.065095964051651231 -6.5378849294737301e-10 -5.0892048981471726e-08 0.68750000000000000 0.18750000000000000 0.68749881740486352 0.18748481840359024 
0.75000000000000000 0.18750000000000000 0.0000000000000000 -1.1967135977421010e-06 -1.6196640349365400e-05 0.049238151936929229 7.5407619345183889e-10 -5.2337175032735620e-08 0.75000000000000000 0.18750000000000000 0.74999880328640234 0.18748380335965065 
0.81250000000000000 0.18750000000000000 0.0000000000000000 -1.1979856850289703e-06 -1.7141339029232240e-05 0.037431209981381906 2.6046508472402880e-09 -4.5810353193936387e-08 0.81250000000000000 0.18750000000000000 0.81249880201431501 0.18748285866097078 
0.87500000000000000 0.18750000000000000 0.0000000000000000 -1.1914298783316271e-06 -1.8017646571471995e-05 0.029596854019538450 4.9538789834925301e-09 -6.7161659416950933e-08 0.87500000000000000 0.18750000000000000 0.87499880857012169 0.18748198235342853 
0.93750000000000000 0.18750000000000000 0.0000000000000000 -1.1817292279343139e-06 -1.8828116485735798e-05 0.023649659844161518 6.7198172721927724e-09 1.2972741251377705e-08 0.93750000000000000 0.18750000000000000 0.93749881827077208 0.18748117188351429 
1.0000000000000000 0.18750000000000000 0.0000000000000000 -1.1726633461475940e-06 -1.9578006004873686e-05 0.071642456586912234 0.0000000000000000 -2.4321585401057873e-07 1.0000000000000000 0.18750000000000000 0.99999882733665391 0.18748042199399509 
0.062500000000000000 0.25000000000000000 0.0000000000000000 8.3362276037580246e-09 -1.4109471829589469e-06 0.29076706692765314 -4.6270850632042284e-08 -6.5380299504265812e-07 0.062500000000000000 0.25000000000000000 0.062500008336227597 0.24999858905281705 
0.0000000000000000 0.25000000000000000 0.0000000000000000 1.4965395242423677e-24 0.0000000000000000 -0.094365386555538569 -1.1691400996239781e-21 2.1578795548013455e-06 0.0000000000000000 0.25000000000000000 1.4965395242423677e-24 0.25000000000000000 
0.12500000000000000 0.25000000000000000 0.0000000000000000 2.8650531939011586e-08 -2.8074624336407929e-06 0.33542434198143622 7.3141577055341845e-08 3.1455522572037703e-07 0.12500000000000000 0.25000000000000000 0.12500002865053195 0.24999719253756636 
0.18750000000000000 0.25000000000000000 0.0000000000000000 5.0242624422514475e-08 -4.2338966247267211e-06 0.31736236207355328 -2.4523939771155461e-07 -2.0511417279227283e-07 0.18750000000000000 0.25000000000000000 0.18750005024262442 0.24999576610337523 
0.25000000000000000 0.25000000000000000 0.0000000000000000 7.2628692056780075e-08 -5.6739108578200947e-06 1.0196662577719975 7.8971308142219230e-07 7.5294144287437401e-07 0.25000000000000000 0.25000000000000000 0.25000007262869200 0.24999432608914218 
0.31250000000000000 0.25000000000000000 0.0000000000000000 -1.2624079198663343e-07 -7.3021626204111046e-06 0.24266927942834235 -1.0475033234075032e-07 -2.6237560565795798e-07 0.31250000000000000 0.25000000000000000 0.31249987375920801 0.24999269783737962 
0.37500000000000000 0.25000000000000000 0.0000000000000000 -2.8503554876948646e-07 -8.8278766321261111e-06 0.23596854128220288 8.6530722258189823e-08 2.9912128339381937e-09 0.37500000000000000 0.25000000000000000 0.37499971496445123 0.24999117212336788 
0.43750000000000000 0.25000000000000000 0.0000000000000000 -4.0662014556272228e-07 -1.0261515256895495e-05 0.19192348181702110 3.1469822785580197e-08 -5.8066226675771929e-08 0.43750000000000000 0.25000000000000000 0.43749959337985445 0.24998973848474312 
0.50000000000000000 0.25000000000000000 0.0000000000000000 -4.9495501963216982e-07 -1.1609561631021268e-05 0.15966893552146444 4.0451003770262778e-08 -4.5135446681663631e-08 0.50000000000000000 0.25000000000000000 0.49999950504498036 0.24998839043836898 
0.56250000000000000 0.25000000000000000 0.0000000000000000 -5.5407883533005846e-07 -1.2875299590387278e-05 0.13152218449621289 3.4011459001283523e-08 -5.0246280056239602e-08 0.56250000000000000 0.25000000000000000 0.56249944592116463 0.24998712470040960 
0.62500000000000000 0.25000000000000000 0.0000000000000000 -5.8821067996861322e-07 -1.4060778597202698e-05 0.10783413162179489 3.2332237137967473e-08 -5.0926879714561118e-08 0.62500000000000000 0.25000000000000000 0.62499941178931995 0.24998593922140280 
0.68750000000000000 0.25000000000000000 0.0000000000000000 -6.0178355816379084e-07 -1.5167541136231061e-05 0.087848113940109315 3.0226262226402245e-08 -5.1635254308838761e-08 0.68750000000000000 0.25000000000000000 0.68749939821644179 0.24998483245886380 
0.75000000000000000 0.25000000000000000 0.0000000000000000 -5.9942325261956298e-07 -1.6197114099577677e-05 0.071292414980961394 2.8818112217741697e-08 -5.3241482109042960e-08 0.75000000000000000 0.25000000000000000 0.74999940057674752 0.24998380288590041 
0.81250000000000000 0.25000000000000000 0.0000000000000000 -5.8590954503413233e-07 -1.7151368100154574e-05 0.058243418705877348 2.7814669322866693e-08 -4.6739334885075612e-08 0.81250000000000000 0.25000000000000000 0.81249941409045501 0.24998284863189982 
0.87500000000000000 0.25000000000000000 0.0000000000000000 -5.6609625409898780e-07 -1.8032351913754339e-05 0.048544272323295612 2.6954238548464587e-08 -6.9434608606712713e-08 0.87500000000000000 0.25000000000000000 0.87499943390374579 0.24998196764808625 
0.93750000000000000 0.25000000000000000 0.0000000000000000 -5.4474472103449697e-07 -1.8843058536834253e-05 0.040040999781416037 2.7122403271894531e-08 2.1026614172947160e-08 0.93750000000000000 0.25000000000000000 0.93749945525527900 0.24998115694146317 
1.0000000000000000 0.25000000000000000 0.0000000000000000 -5.2593755337439976e-07 -1.9588678939274640e-05 0.11130982715249101 0.0000000000000000 -2.8710159817734471e-07 1.0000000000000000 0.25000000000000000 0.99999947406244660 0.24998041132106072 
0.062500000000000000 0.31250000000000000 0.0000000000000000 1.1811927173278749e-08 -1.4327998452991484e-06 0.22678798492232774 -3.7892605210471306e-08 -5.8486746634202570e-07 0.062500000000000000 0.31250000000000000 0.062500011811927172 0.31249856720015462 
0.0000000000000000 0.31250000000000000 0.0000000000000000 1.4680208391213825e-24 0.0000000000000000 -0.41684282874035183 -6.4952227757902513e-22 2.0559341144916217e-06 0.0000000000000000 0.31250000000000000 1.4680208391213825e-24 0.31250000000000000 
0.12500000000000000 0.31250000000000000 0.0000000000000000 4.7906031398601786e-08 -2.8410117285000198e-06 0.25284849533340104 -2.8517371344730375e-08 1.9786149656807329e-07 0.12500000000000000 0.31250000000000000 0.12500004790603139 0.31249715898827152 
0.18750000000000000 0.31250000000000000 0.0000000000000000 9.7039943499374275e-08 -4.2700718816371720e-06 0.31204566065617562 6.2499201076755674e-08 4.1848298413015344e-08 0.18750000000000000 0.31250000000000000 0.18750009703994350 0.31249572992811836 
0.25000000000000000 0.31250000000000000 0.0000000000000000 1.4960002418095908e-07 -5.7108802912216325e-06 0.28232404675027117 -2.1087159180186757e-07 -1.1496362116577217e-07 0.25000000000000000 0.31250000000000000 0.25000014960002420 0.31249428911970872 
0.31250000000000000 0.31250000000000000 0.0000000000000000 2.0701531531220690e-07 -7.1456842504278570e-06 0.82573936740703313 5.9970792964870984e-07 5.6631755654753748e-07 0.31250000000000000 0.31250000000000000 0.31250020701531533 0.31249285431574952 
0.37500000000000000 0.31250000000000000 0.0000000000000000 9.4346463426777513e-08 -8.7099496012197458e-06 0.22194080547485853 -9.7895111769749658e-08 -2.1123786729895202e-07 0.37500000000000000 0.31250000000000000 0.37500009434646348 0.31249129005039883 
0.43750000000000000 0.31250000000000000 0.0000000000000000 1.4282660887446939e-08 -1.0175809984350620e-05 0.22160026205066949 6.0234629090969354e-08 -2.1428720406346573e-09 0.43750000000000000 0.31250000000000000 0.43750001428266089 0.31248982419001564 
0.50000000000000000 0.31250000000000000 0.0000000000000000 -3.8337316458714990e-08 -1.1552610870145716e-05 0.18412369505782503 1.5565464653286542e-08 -5.4561585113647237e-08 0.50000000000000000 0.31250000000000000 0.49999996166268357 0.31248844738912984 
0.56250000000000000 0.31250000000000000 0.0000000000000000 -6.6275092099613251e-08 -1.2843468169292720e-05 0.15736137745175785 2.3900751454997347e-08 -4.4953447857635728e-08 0.56250000000000000 0.31250000000000000 0.56249993372490792 0.31248715653183073 
0.62500000000000000 0.31250000000000000 0.0000000000000000 -7.2947427817597505e-08 -1.4050123204998786e-05 0.13385233570786870 1.9509121927579155e-08 -5.0055206423013740e-08 0.62500000000000000 0.31250000000000000 0.62499992705257224 0.31248594987679507 
0.68750000000000000 0.31250000000000000 0.0000000000000000 -6.2070861680728642e-08 -1.5173834365897042e-05 0.11399912078816898 1.9254359778269039e-08 -5.0467464492727913e-08 0.68750000000000000 0.31250000000000000 0.68749993792913833 0.31248482616563411 
0.75000000000000000 0.31250000000000000 0.0000000000000000 -3.7726398978146518e-08 -1.6215878003544004e-05 0.097068483061463581 1.8566316930784022e-08 -5.2679792461419093e-08 0.75000000000000000 0.31250000000000000 0.74999996227360100 0.31248378412199646 
0.81250000000000000 0.31250000000000000 0.0000000000000000 -4.2967940160863725e-09 -1.7177917618955733e-05 0.083146334303103295 1.8748881852782587e-08 -4.6880593210360090e-08 0.81250000000000000 0.31250000000000000 0.81249999570320597 0.31248282208238104 
0.87500000000000000 0.31250000000000000 0.0000000000000000 3.3574543162855542e-08 -1.8061896105007579e-05 0.071853698488715936 1.9002155095489475e-08 -6.9097993710042483e-08 0.87500000000000000 0.31250000000000000 0.87500003357454315 0.31248193810389502 
0.93750000000000000 0.31250000000000000 0.0000000000000000 7.1123775124740544e-08 -1.8870922956046561e-05 0.061008859211342560 1.9271509034645882e-08 2.2238806858145079e-08 0.93750000000000000 0.31250000000000000 0.93750007112377520 0.31248112907704395 
1.0000000000000000 0.31250000000000000 0.0000000000000000 1.0392273503800499e-07 -1.9609797446346873e-05 0.15929005866491960 0.0000000000000000 -3.0445912067545276e-07 1.0000000000000000 0.31250000000000000 1.0000001039227351 0.31248039020255364 
0.062500000000000000 0.37500000000000000 0.0000000000000000 1.5588382905493732e-08 -1.4640755690504371e-06 0.17279908363482757 -6.8343702958429821e-08 -5.9453232788927918e-07 0.062500000000000000 0.37500000000000000 0.062500015588382904 0.37499853592443094 
0.0000000000000000 0.37500000000000000 0.0000000000000000 -4.5730388014453199e-25 0.0000000000000000 -0.72809188228193478 1.2990445554613530e-22 2.0985644357589483e-06 0.0000000000000000 0.37500000000000000 -4.5730388014453199e-25 0.37500000000000000 
0.12500000000000000 0.37500000000000000 0.0000000000000000 6.6237245351585736e-08 -2.8948697991247974e-06 0.19507699283992785 -1.2491922800278535e-08 2.0185219837207021e-07 0.12500000000000000 0.37500000000000000 0.12500006623724536 0.37499710513020096 
0.18750000000000000 0.37500000000000000 0.0000000000000000 1.3935584824246710e-07 -4.3372677448564637e-06 0.24620658811838378 -2.9477567637947429e-08 -3.1791769473812291e-08 0.18750000000000000 0.37500000000000000 0.18750013935584822 0.37499566273225510 
0.25000000000000000 0.37500000000000000 0.0000000000000000 2.2538862688661390e-07 -5.7813909904119053e-06 0.28866355369931473 5.2544806159988949e-08 8.5772490251200206e-08 0.25000000000000000 0.37500000000000000 0.25000022538862687 0.37499421860900961 
0.31250000000000000 0.37500000000000000 0.0000000000000000 3.1483220162485383e-07 -7.2202653812087833e-06 0.25889946060745644 -1.6720328428081407e-07 -1.1599935345052772e-07 0.31250000000000000 0.37500000000000000 0.31250031483220164 0.37499277973461881 
0.37500000000000000 0.37500000000000000 0.0000000000000000 4.1066927523150366e-07 -8.6354956960501751e-06 0.67873592396499383 4.6885261157767209e-07 4.3598874570237732e-07 0.37500000000000000 0.37500000000000000 0.37500041066927525 0.37499136450430393 
0.43750000000000000 0.37500000000000000 0.0000000000000000 3.7511883297611991e-07 -1.0132116734604627e-05 0.21131871607567110 -7.6560849033263263e-08 -1.7734357889263419e-07 0.43750000000000000 0.37500000000000000 0.43750037511883294 0.37498986788326544 
0.50000000000000000 0.37500000000000000 0.0000000000000000 3.6511448308677077e-07 -1.1532139732335477e-05 0.21511030273878454 5.2667336432970346e-08 -8.1994981823361349e-09 0.50000000000000000 0.37500000000000000 0.50000036511448309 0.37498846786026768 
0.56250000000000000 0.37500000000000000 0.0000000000000000 3.7430436199638852e-07 -1.2843788469463630e-05 0.18390143646547852 1.5378873843532168e-08 -5.3637763302625021e-08 0.56250000000000000 0.37500000000000000 0.56250037430436184 0.37498715621153056 
0.62500000000000000 0.37500000000000000 0.0000000000000000 4.0069704634883730e-07 -1.4068072875707649e-05 0.16196807082510981 2.2467981244411000e-08 -4.6291052289535268e-08 0.62500000000000000 0.37500000000000000 0.62500040069704632 0.37498593192712432 
0.68750000000000000 0.37500000000000000 0.0000000000000000 4.4124092511280210e-07 -1.5205851141069938e-05 0.14244553148849268 1.9052985311542927e-08 -5.0689805960824061e-08 0.68750000000000000 0.37500000000000000 0.68750044124092513 0.37498479414885894 
0.75000000000000000 0.37500000000000000 0.0000000000000000 4.9248800889201247e-07 -1.6257980162691046e-05 0.12567955210494738 1.9095712636613448e-08 -5.2404399390987175e-08 0.75000000000000000 0.37500000000000000 0.75000049248800893 0.37498374201983736 
0.81250000000000000 0.37500000000000000 0.0000000000000000 5.5049999100741390e-07 -1.7225757669025178e-05 0.11139417062748280 1.9246050845147143e-08 -4.7997389191282027e-08 0.81250000000000000 0.37500000000000000 0.81250055049999104 0.37498277424233090 
0.87500000000000000 0.37500000000000000 0.0000000000000000 6.1091256308357779e-07 -1.8110836252694995e-05 0.099019352180054129 1.9605245518602150e-08 -6.8433220165066517e-08 0.87500000000000000 0.37500000000000000 0.87500061091256309 0.37498188916374731 