# For a description of the Tecplot format see the Tecplot User's guide.
#
Variables=x,y,z,s_u,s_v,s_p,x,y,ref_u,ref_v,u,v
Zone f=fepoint, n=289, e=512, et=quadrilateral, c=black
0.00000 0.00000 0.00000 0.0000000000000000 0.0000000000000000 5.3387960745840637 0.0000000000000000 0.0000000000000000 0.0000000000000000 0.0000000000000000 0.0000000000000000 0.0000000000000000 
0.062500000000000000 0.0000000000000000 0.0000000000000000 -6.7124471065968165e-07 -2.0420520898819303e-06 2.8500385151011187 3.6167929517706807e-06 0.0000000000000000 0.062500000000000000 0.0000000000000000 0.062499328755289331 -2.0420520898819303e-06 
0.062500000000000000 0.062500000000000000 0.0000000000000000 -1.7393083999026342e-08 -1.4346046664501296e-06 1.9210698864056477 1.3798962433283974e-06 1.4038913049321837e-06 0.062500000000000000 0.062500000000000000 0.062499982606916006 0.062498565395333550 
0.0000000000000000 0.062500000000000000 0.0000000000000000 2.4371267478559698e-25 0.0000000000000000 1.0231894328162319 9.1148302160500502e-33 2.3985760355387060e-06 0.0000000000000000 0.062500000000000000 2.4371267478559698e-25 0.062500000000000000 
0.12500000000000000 0.0000000000000000 0.0000000000000000 -1.2419425637848978e-06 -3.8201860681281520e-06 2.4102320058683020 3.0120750884255284e-06 0.0000000000000000 0.12500000000000000 0.0000000000000000 0.12499875805743621 -3.8201860681281520e-06 
0.12500000000000000 0.062500000000000000 0.0000000000000000 -5.4268060733331548e-07 -3.2898223479732075e-06 0.30936738549684800 -1.1488982155276379e-06 -5.0068073139133315e-07 0.12500000000000000 0.062500000000000000 0.12499945731939267 0.062496710177652022 
0.18750000000000000 0.0000000000000000 0.0000000000000000 -1.7177070699019046e-06 -5.4335491033616124e-06 2.0259893047360262 2.4188417594346410e-06 0.0000000000000000 0.18750000000000000 0.0000000000000000 0.18749828229293009 -5.4335491033616124e-06 
0.18750000000000000 0.062500000000000000 0.0000000000000000 -1.0097901144257359e-06 -4.9951130702734638e-06 0.25582273342053180 -5.7571096777652320e-07 7.4386447453525841e-08 0.18750000000000000 0.062500000000000000 0.18749899020988559 0.062495004886929724 
0.25000000000000000 0.0000000000000000 0.0000000000000000 -2.1105834022705541e-06 -6.9247487713971542e-06 1.6984806025338139 2.1336067747444272e-06 0.0000000000000000 0.25000000000000000 0.0000000000000000 0.24999788941659773 -6.9247487713971542e-06 
0.25000000000000000 0.062500000000000000 0.0000000000000000 -1.3943610137810688e-06 -6.5642544356544515e-06 0.19639608427316224 -5.8037740530118678e-07 -4.5934429913242986e-08 0.25000000000000000 0.062500000000000000 0.24999860563898621 0.062493435745564339 
0.31250000000000000 0.0000000000000000 0.0000000000000000 -2.4296855059915394e-06 -8.3248865895074660e-06 1.4125743737354792 1.8761185230669252e-06 0.0000000000000000 0.31250000000000000 0.0000000000000000 0.31249757031449399 -8.3248865895074660e-06 
0.31250000000000000 0.062500000000000000 0.0000000000000000 -1.7089082834215426e-06 -8.0333332572322425e-06 0.14810390246120839 -5.0235864151623582e-07 -1.2766245178936045e-08 0.31250000000000000 0.062500000000000000 0.31249829109171662 0.062491966666742775 
0.37500000000000000 0.0000000000000000 0.0000000000000000 -2.6840856921342103e-06 -9.6499346063747766e-06 1.1604255276304791 1.6754181076762023e-06 0.0000000000000000 0.37500000000000000 0.0000000000000000 0.37499731591430785 -9.6499346063747766e-06 
0.37500000000000000 0.062500000000000000 0.0000000000000000 -1.9615914433320225e-06 -9.4187967019912531e-06 0.10626851553215277 -4.6161419916825627e-07 -2.3429346990711221e-08 0.37500000000000000 0.062500000000000000 0.37499803840855667 0.062490581203298000 
0.43750000000000000 0.0000000000000000 0.0000000000000000 -2.8818851490340856e-06 -1.0909146602992943e-05 0.93740665001492296 1.4986497705911575e-06 0.0000000000000000 0.43750000000000000 0.0000000000000000 0.43749711811485098 -1.0909146602992943e-05 
0.43750000000000000 0.062500000000000000 0.0000000000000000 -2.1600441118353503e-06 -1.0730663335842900e-05 0.071419533248676448 -4.2126798034866813e-07 -2.7675828742971718e-08 0.43750000000000000 0.062500000000000000 0.43749783995588815 0.062489269336664155 
0.50000000000000000 0.0000000000000000 0.0000000000000000 -3.0308684484453771e-06 -1.2107530773985384e-05 0.74072280895865494 1.3380703553314583e-06 0.0000000000000000 0.50000000000000000 0.0000000000000000 0.49999696913155156 -1.2107530773985384e-05 
0.50000000000000000 0.062500000000000000 0.0000000000000000 -2.3113782320245426e-06 -1.1974284770813232e-05 0.042889113781253742 -3.8556721383274094e-07 -3.4562200500791124e-08 0.50000000000000000 0.062500000000000000 0.49999768862176802 0.062488025715229177 
0.56250000000000000 0.0000000000000000 0.0000000000000000 -3.1385655107696700e-06 -1.3247914303815986e-05 0.56875471801557598 1.1858009622641780e-06 0.0000000000000000 0.56250000000000000 0.0000000000000000 0.56249686143448918 -1.3247914303815986e-05 
0.56250000000000000 0.062500000000000000 0.0000000000000000 -2.4224355106723499e-06 -1.3152717781339940e-05 0.020389844903857424 -3.5038482193660510e-07 -4.0382799774114803e-08 0.56250000000000000 0.062500000000000000 0.56249757756448926 0.062486847282218656 
0.62500000000000000 0.0000000000000000 0.0000000000000000 -3.2123331944871181e-06 -1.4332015556852128e-05 0.42057760441040754 1.0377093335902802e-06 0.0000000000000000 0.62500000000000000 0.0000000000000000 0.62499678766680555 -1.4332015556852128e-05 
0.62500000000000000 0.062500000000000000 0.0000000000000000 -2.4998901733716914e-06 -1.4267846905896167e-05 0.0036105442303238830 -3.1492537951287839e-07 -4.5321188433346383e-08 0.62500000000000000 0.062500000000000000 0.62499750010982658 0.062485732153094102 
0.68750000000000000 0.0000000000000000 0.0000000000000000 -3.2593206012268752e-06 -1.5361071442725397e-05 0.29568954744644566 8.9061348334411369e-07 0.0000000000000000 0.68750000000000000 0.0000000000000000 0.68749674067939870 -1.5361071442725397e-05 
0.68750000000000000 0.062500000000000000 0.0000000000000000 -2.5502819603094281e-06 -1.5321114698661943e-05 -0.0077178850372136565 -2.7832990284360219e-07 -4.8336096163195708e-08 0.68750000000000000 0.062500000000000000 0.68749744971803972 0.062484678885301341 
0.75000000000000000 0.0000000000000000 0.0000000000000000 -3.2863558552851982e-06 -1.6336120059298309e-05 0.19383816861035949 7.4304050274426899e-07 0.0000000000000000 0.75000000000000000 0.0000000000000000 0.74999671364414466 -1.6336120059298309e-05 
0.75000000000000000 0.062500000000000000 0.0000000000000000 -2.5799639214738647e-06 -1.6313868110825271e-05 -0.013868212126100862 -2.4042205424430364e-07 -5.1913612397063674e-08 0.75000000000000000 0.062500000000000000 0.74999742003607850 0.062483686131889170 
0.81250000000000000 0.0000000000000000 0.0000000000000000 -3.2996957494163396e-06 -1.7257963103167846e-05 0.11488793833812855 5.9112773697613704e-07 0.0000000000000000 0.81250000000000000 0.0000000000000000 0.81249670030425059 -1.7257963103167846e-05 
0.81250000000000000 0.062500000000000000 0.0000000000000000 -2.5949707129059163e-06 -1.7247521732477523e-05 -0.015082463868142659 -2.0093784973831437e-07 -4.8275178843110091e-08 0.81250000000000000 0.062500000000000000 0.81249740502928713 0.062482752478267518 
0.87500000000000000 0.0000000000000000 0.0000000000000000 -3.3047801460978673e-06 -1.8127079839719896e-05 0.059026074632691133 4.3881369506421373e-07 0.0000000000000000 0.87500000000000000 0.0000000000000000 0.87499669521985390 -1.8127079839719896e-05 
0.87500000000000000 0.062500000000000000 0.0000000000000000 -2.6007428530574507e-06 -1.8123247270440288e-05 -0.011686666500313367 -1.6119078786228044e-07 -6.5133848124491341e-08 0.87500000000000000 0.062500000000000000 0.87499739925714692 0.062481876752729558 
0.93750000000000000 0.0000000000000000 0.0000000000000000 -3.3055299378358242e-06 -1.8942314870731813e-05 0.023478657227478439 2.6649771357800679e-07 0.0000000000000000 0.93750000000000000 0.0000000000000000 0.93749669447006212 -1.8942314870731813e-05 
0.93750000000000000 0.062500000000000000 0.0000000000000000 -2.6018912761042657e-06 -1.8941822340256217e-05 -0.0056845408313206365 -1.1976022004150407e-07 -2.0743838121927602e-08 0.93750000000000000 0.062500000000000000 0.93749739810872390 0.062481058177659747 
1.0000000000000000 0.0000000000000000 0.0000000000000000 -3.3047352100626621e-06 -1.9708977520742453e-05 0.040821059954731009 0.0000000000000000 0.0000000000000000 1.0000000000000000 0.0000000000000000 0.99999669526478996 -1.9708977520742453e-05 
1.0000000000000000 0.062500000000000000 0.0000000000000000 -2.6016641049179320e-06 -1.9708203368953830e-05 0.011260447892133313 0.0000000000000000 -1.4577056529137772e-07 1.0000000000000000 0.062500000000000000 0.99999739833589507 0.062480291796631039 
0.062500000000000000 0.12500000000000000 0.0000000000000000 -2.5154559246922924e-09 -1.3993964857343981e-06 0.45212254385716838 -4.2004473552090405e-07 -1.0452007579202232e-06 0.062500000000000000 0.12500000000000000 0.062499997484544066 0.12499860060351427 
0.0000000000000000 0.12500000000000000 0.0000000000000000 -1.0879173143248746e-25 0.0000000000000000 0.73917198238337833 6.8199839143658723e-22 2.8898562272882557e-06 0.0000000000000000 0.12500000000000000 -1.0879173143248746e-25 0.12500000000000000 
0.12500000000000000 0.12500000000000000 0.0000000000000000 -2.8731471483301626e-08 -2.8184650369479853e-06 1.5953333633844420 1.4931852028331035e-06 1.3856455983062909e-06 0.12500000000000000 0.12500000000000000 0.12499997126852853 0.12499718153496307 
0.18750000000000000 0.12500000000000000 0.0000000000000000 -4.3833001711184413e-07 -4.5879787683004587e-06 0.33801224762427945 4.6401759700705584e-08 -4.4345618774548451e-07 0.18750000000000000 0.12500000000000000 0.18749956166998286 0.12499541202123170 
0.25000000000000000 0.12500000000000000 0.0000000000000000 -7.9067765129107815e-07 -6.2299605772172776e-06 0.30755769549405043 2.8932186037319559e-07 -1.0716636300782634e-08 0.25000000000000000 0.12500000000000000 0.24999920932234868 0.12499377003942279 
0.31250000000000000 0.12500000000000000 0.0000000000000000 -1.0794080863455546e-06 -7.7614232196671456e-06 0.24977721445435352 1.9266358183716837e-07 -8.4333791316626953e-08 0.31250000000000000 0.12500000000000000 0.31249892059191359 0.12499223857678034 
0.37500000000000000 0.12500000000000000 0.0000000000000000 -1.3123632607295336e-06 -9.2022593258146802e-06 0.20373621204102510 1.9252324481024892e-07 -6.0057770329400175e-08 0.37500000000000000 0.12500000000000000 0.37499868763673927 0.12499079774067419 
0.43750000000000000 0.12500000000000000 0.0000000000000000 -1.4958877621287240e-06 -1.0562672779135323e-05 0.16311876171797346 1.7185420861735931e-07 -6.1826311819385306e-08 0.43750000000000000 0.12500000000000000 0.43749850411223790 0.12498943732722088 
0.50000000000000000 0.12500000000000000 0.0000000000000000 -1.6360860685322424e-06 -1.1848385670490700e-05 0.12822671018730572 1.5875715569716678e-07 -5.9694898536414286e-08 0.50000000000000000 0.12500000000000000 0.49999836391393154 0.12498815161432951 
0.56250000000000000 0.12500000000000000 0.0000000000000000 -1.7388592802214001e-06 -1.3062605288082801e-05 0.098419543470012763 1.4549788296532088e-07 -5.9205528981830448e-08 0.56250000000000000 0.12500000000000000 0.56249826114071977 0.12498693739471191 
0.62500000000000000 0.12500000000000000 0.0000000000000000 -1.8100421472625388e-06 -1.4207310767576625e-05 0.073431847762626748 1.3346121954978643e-07 -5.8352312968259938e-08 0.62500000000000000 0.12500000000000000 0.62499818995785272 0.12498579268923242 
0.68750000000000000 0.12500000000000000 0.0000000000000000 -1.8554349322426321e-06 -1.5284031596012320e-05 0.053047286554515849 1.2201649192242754e-07 -5.6590529815142010e-08 0.68750000000000000 0.12500000000000000 0.68749814456506775 0.12498471596840399 
0.75000000000000000 0.12500000000000000 0.0000000000000000 -1.8807898084425539e-06 -1.6294273535626201e-05 0.037116702799765013 1.1117290306109492e-07 -5.6245768460285537e-08 0.75000000000000000 0.12500000000000000 0.74999811921019155 0.12498370572646438 
0.81250000000000000 0.12500000000000000 0.0000000000000000 -1.8917197667386349e-06 -1.7239766999567881e-05 0.025607476476075270 1.0048245459370022e-07 -4.8382979024010367e-08 0.81250000000000000 0.12500000000000000 0.81249810828023328 0.12498276023300044 
0.87500000000000000 0.12500000000000000 0.0000000000000000 -1.8935287170377148e-06 -1.8122246858553066e-05 0.018483574844324436 9.0064490589000608e-08 -6.6615787269652516e-08 0.87500000000000000 0.12500000000000000 0.87499810647128295 0.12498187775314144 
0.93750000000000000 0.12500000000000000 0.0000000000000000 -1.8909527412580566e-06 -1.8943552814426554e-05 0.013792292842921059 8.4781565312053973e-08 2.5446841522682463e-09 0.93750000000000000 0.12500000000000000 0.93749810904725883 0.12498105644718559 
1.0000000000000000 0.12500000000000000 0.0000000000000000 -1.8872315882087304e-06 -1.9709546454291326e-05 0.042844827989862201 0.0000000000000000 -1.7839961074124562e-07 1.0000000000000000 0.12500000000000000 0.99999811276841177 0.12498029045354571 
0.062500000000000000 0.18750000000000000 0.0000000000000000 3.0259396649266184e-09 -1.3960493888530976e-06 0.39765963708311852 1.3622160384136365e-07 -6.2604619878572195e-07 0.062500000000000000 0.18750000000000000 0.062500003025939666 0.18749860395061116 
0.0000000000000000 0.18750000000000000 0.0000000000000000 8.5600001757182657e-25 0.0000000000000000 0.31223644906972653 -1.4289490106375214e-21 2.4153931550812906e-06 0.0000000000000000 0.18750000000000000 8.5600001757182657e-25 0.18750000000000000 
0.12500000000000000 0.18750000000000000 0.0000000000000000 2.2012787937992694e-09 -2.7950373204194666e-06 0.37424740038240650 -3.4291150733938779e-07 2.7977035430636524e-08 0.12500000000000000 0.18750000000000000 0.12500000220127880 0.18749720496267955 
0.18750000000000000 0.18750000000000000 0.0000000000000000 -7.2243417346849483e-09 -4.2308698108664757e-06 1.2671074659356241 9.4826810967189367e-07 9.1030041710223139e-07 0.18750000000000000 0.18750000000000000 0.18749999277565824 0.18749576913018914 
0.25000000000000000 0.18750000000000000 0.0000000000000000 -3.0766243982492136e-07 -5.9298852911679267e-06 0.28825034761076579 -1.8751069655485674e-07 -3.0558012295060457e-07 0.25000000000000000 0.18750000000000000 0.24999969233756017 0.18749407011470884 
0.31250000000000000 0.18750000000000000 0.0000000000000000 -5.5938990854685148e-07 -7.5177659762013123e-06 0.26917676520081996 5.0068374315899199e-08 1.0424423018472957e-08 0.31250000000000000 0.18750000000000000 0.31249944061009144 0.18749248223402379 
0.37500000000000000 0.18750000000000000 0.0000000000000000 -7.6168925607492593e-07 -9.0080047771769035e-06 0.21709336611249452 -9.4295709948734717e-09 -5.8391678027925069e-08 0.37500000000000000 0.18750000000000000 0.37499923831074394 0.18749099199522282 
0.43750000000000000 0.18750000000000000 0.0000000000000000 -9.2019620804965307e-07 -1.0412325041851725e-05 0.17738969826676501 4.1838890475436059e-09 -4.1734653503548178e-08 0.43750000000000000 0.18750000000000000 0.43749907980379193 0.18748958767495816 
0.50000000000000000 0.18750000000000000 0.0000000000000000 -1.0398611192630968e-06 -1.1736438689411971e-05 0.14278610970015645 -3.6204093957116369e-10 -4.7297434669370350e-08 0.50000000000000000 0.18750000000000000 0.49999896013888073 0.18748826356131063 
0.56250000000000000 0.18750000000000000 0.0000000000000000 -1.1256669954918459e-06 -1.2983634722932392e-05 0.11350781650569826 1.5927211801083240e-10 -4.8045485384870486e-08 0.56250000000000000 0.18750000000000000 0.56249887433300449 0.18748701636527706 
0.62500000000000000 0.18750000000000000 0.0000000000000000 -1.1826441665297351e-06 -1.4155873736558440e-05 0.088737470407392285 4.5197655061605110e-11 -4.9821321323544708e-08 0.62500000000000000 0.18750000000000000 0.62499881735583351 0.18748584412626343 
0.68750000000000000 0.18750000000000000 0.0000000000000000 -1.2159102861669135e-06 -1.5254657959472277e-05 0.068173264306541248 8.4108197629127532e-10 -5.0133853360598728e-08 0.68750000000000000 0.18750000000000000 0.68749878408971388 0.18748474534204052 
0.75000000000000000 0.18750000000000000 0.0000000000000000 -1.2306653848909354e-06 -1.6281498382338273e-05 0.051579056379119192 2.1465662023114272e-09 -5.1803131327948032e-08 0.75000000000000000 0.18750000000000000 0.74999876933461518 0.18748371850161763 
0.81250000000000000 0.18750000000000000 0.0000000000000000 -1.2321394316462817e-06 -1.7238242724428593e-05 0.039017994729647010 3.9339280174608746e-09 -4.5035214027911127e-08 0.81250000000000000 0.18750000000000000 0.81249876786056852 0.18748276175727560 
0.87500000000000000 0.18750000000000000 0.0000000000000000 -1.2254724763249753e-06 -1.8126900869184557e-05 0.030461186771206867 6.2220445474787853e-09 -6.7144831684191412e-08 0.87500000000000000 0.18750000000000000 0.87499877452752373 0.18748187309913081 
0.93750000000000000 0.18750000000000000 0.0000000000000000 -1.2155065847369216e-06 -1.8950093952694745e-05 0.023539271276675999 8.2535354471593549e-09 1.5727800237084336e-08 0.93750000000000000 0.18750000000000000 0.93749878449341539 0.18748104990604730 
1.0000000000000000 0.18750000000000000 0.0000000000000000 -1.2061870409770531e-06 -1.9713795269211916e-05 0.070159542575826031 0.0000000000000000 -2.4600511275573483e-07 1.0000000000000000 0.18750000000000000 0.99999879381295897 0.18748028620473078 
0.062500000000000000 0.25000000000000000 0.0000000000000000 7.6003772572723690e-09 -1.4056683310663639e-06 0.29773053416906670 -4.6308117952199778e-08 -6.3710882950610097e-07 0.062500000000000000 0.25000000000000000 0.062500007600377258 0.24999859433166893 
0.0000000000000000 0.25000000000000000 0.0000000000000000 5.4443030794204691e-25 0.0000000000000000 -0.049336736440408778 5.1961782205899070e-22 2.1191936230697729e-06 0.0000000000000000 0.25000000000000000 5.4443030794204691e-25 0.25000000000000000 
0.12500000000000000 0.25000000000000000 0.0000000000000000 2.5827228757138307e-08 -2.8014158650962101e-06 0.34439835914852407 7.5339099572874163e-08 3.1659275775916297e-07 0.12500000000000000 0.25000000000000000 0.12500002582722877 0.24999719858413491 
0.18750000000000000 0.25000000000000000 0.0000000000000000 4.4194216747170636e-08 -4.2311393214605977e-06 0.32705413295917446 -2.4748521262992982e-07 -2.0155264678979522e-07 0.18750000000000000 0.25000000000000000 0.18750004419421676 0.24999576886067851 
0.25000000000000000 0.25000000000000000 0.0000000000000000 6.3093903429386704e-08 -5.6774600720195134e-06 1.0075049962797231 7.8810838824557238e-07 7.5341094227968673e-07 0.25000000000000000 0.25000000000000000 0.25000006309390344 0.24999432253992795 
0.31250000000000000 0.25000000000000000 0.0000000000000000 -1.3876759623685980e-07 -7.3129766114518049e-06 0.25170188904078566 -1.0106021721710162e-07 -2.6063007121853150e-07 0.31250000000000000 0.25000000000000000 0.31249986123240375 0.24999268702338859 
0.37500000000000000 0.25000000000000000 0.0000000000000000 -3.0009556617031805e-07 -8.8465074770398841e-06 0.24219730343532611 8.7257976042993651e-08 5.7088181620699829e-09 0.37500000000000000 0.25000000000000000 0.37499969990443383 0.24999115349252296 
0.43750000000000000 0.25000000000000000 0.0000000000000000 -4.2399132161929416e-07 -1.0289236038128426e-05 0.19752261038960114 3.2971789541045909e-08 -5.6140713015085085e-08 0.43750000000000000 0.25000000000000000 0.43749957600867839 0.24998971076396190 
0.50000000000000000 0.25000000000000000 0.0000000000000000 -5.1427465842899399e-07 -1.1647423638837420e-05 0.16446366284455918 4.1418731735986774e-08 -4.3562371683151943e-08 0.50000000000000000 0.25000000000000000 0.49999948572534159 0.24998835257636112 
0.56250000000000000 0.25000000000000000 0.0000000000000000 -5.7492054820254325e-07 -1.2924140088869853e-05 0.13569460979220671 3.4904251712881970e-08 -4.8992320862434834e-08 0.56250000000000000 0.25000000000000000 0.56249942507945183 0.24998707585991112 
0.62500000000000000 0.25000000000000000 0.0000000000000000 -6.1011240633696484e-07 -1.4121207264076179e-05 0.11140831604945822 3.3076796685874017e-08 -4.9975279744807408e-08 0.62500000000000000 0.25000000000000000 0.62499938988759363 0.24998587879273595 
0.68750000000000000 0.25000000000000000 0.0000000000000000 -6.2427700937839495e-07 -1.5239966042727464e-05 0.090830514983518976 3.0877346928641935e-08 -5.0868363922516999e-08 0.68750000000000000 0.25000000000000000 0.68749937572299047 0.24998476003395728 
0.75000000000000000 0.25000000000000000 0.0000000000000000 -6.2206278653389730e-07 -1.6281788964047169e-05 0.073660273627568149 2.9414306868229897e-08 -5.2689789822626248e-08 0.75000000000000000 0.25000000000000000 0.74999937793721350 0.24998371821103596 
0.81250000000000000 0.25000000000000000 0.0000000000000000 -6.0830670461446770e-07 -1.7248451935817191e-05 0.059931061838865873 2.8358153747049592e-08 -4.5936475977466470e-08 0.81250000000000000 0.25000000000000000 0.81249939169329544 0.24998275154806418 
0.87500000000000000 0.25000000000000000 0.0000000000000000 -5.8796136143964191e-07 -1.8142018584899543e-05 0.049539263373088928 2.7543358683107603e-08 -6.9437819043377492e-08 0.87500000000000000 0.25000000000000000 0.87499941203863851 0.24998185798141506 
0.93750000000000000 0.25000000000000000 0.0000000000000000 -5.6593622671487079e-07 -1.8965504515145839e-05 0.039930265411759480 2.7851660149795981e-08 2.3911812449580795e-08 0.93750000000000000 0.25000000000000000 0.93749943406377334 0.24998103449548489 
1.0000000000000000 0.25000000000000000 0.0000000000000000 -5.4649146211005004e-07 -1.9724839179941878e-05 0.11024901133011716 0.0000000000000000 -2.9033644307402550e-07 1.0000000000000000 0.25000000000000000 0.99999945350853781 0.24998027516082008 
0.062500000000000000 0.31250000000000000 0.0000000000000000 1.1389980867641447e-08 -1.4262390142604559e-06 0.23116431052561923 -3.6219987453034038e-08 -5.6695218785913294e-07 0.062500000000000000 0.31250000000000000 0.062500011389980861 0.31249857376098572 
0.0000000000000000 0.31250000000000000 0.0000000000000000 1.6369971232198907e-25 0.0000000000000000 -0.36925803220934966 -8.6523437186625294e-33 2.0139342448966831e-06 0.0000000000000000 0.31250000000000000 1.6369971232198907e-25 0.31250000000000000 
0.12500000000000000 0.31250000000000000 0.0000000000000000 4.6102557906316294e-08 -2.8327928432445251e-06 0.25974150551955277 -2.8174823744676264e-08 1.9891410310266982e-07 0.12500000000000000 0.31250000000000000 0.12500004610255791 0.31249716720715676 
0.18750000000000000 0.31250000000000000 0.0000000000000000 9.3171167663793401e-08 -4.2642975717409579e-06 0.31774726450737395 6.4138833248247231e-08 4.6853424688618806e-08 0.18750000000000000 0.31250000000000000 0.18750009317116767 0.31249573570242828 
0.25000000000000000 0.31250000000000000 0.0000000000000000 1.4299726895270053e-07 -5.7110867733345158e-06 0.28934302536317696 -2.1102306714006005e-07 -1.0926763705212939e-07 0.25000000000000000 0.31250000000000000 0.25000014299726897 0.31249428891322667 
0.31250000000000000 0.31250000000000000 0.0000000000000000 1.9749592897427602e-07 -7.1544940622106890e-06 0.81185195886307737 5.9344637109207997e-07 5.6197557456202763e-07 0.31250000000000000 0.31250000000000000 0.31250019749592900 0.31249284550593787 
0.37500000000000000 0.31250000000000000 0.0000000000000000 8.3811927918659585e-08 -8.7269347215802839e-06 0.22874543111424192 -9.3900104010808730e-08 -2.0735163347814727e-07 0.37500000000000000 0.31250000000000000 0.37500008381192790 0.31249127306527841 
0.43750000000000000 0.31250000000000000 0.0000000000000000 2.8525974039721807e-09 -1.0202002425119973e-05 0.22590270316117991 6.0489546760698679e-08 -4.7520607716280355e-11 0.43750000000000000 0.31250000000000000 0.43750000285259733 0.31248979799757487 
0.50000000000000000 0.31250000000000000 0.0000000000000000 -5.0573208571727234e-08 -1.1589237240604339e-05 0.18820250179113862 1.6799377285791621e-08 -5.2654325144886842e-08 0.50000000000000000 0.31250000000000000 0.49999994942679143 0.31248841076275941 
0.56250000000000000 0.31250000000000000 0.0000000000000000 -7.9085105463899795e-08 -1.2891439445725808e-05 0.16094045648866584 2.4614139447529318e-08 -4.3554778903286275e-08 0.56250000000000000 0.31250000000000000 0.56249992091489454 0.31248710856055428 
0.62500000000000000 0.31250000000000000 0.0000000000000000 -8.6015843290625402e-08 -1.4110089414366047e-05 0.13705446482703029 2.0214308399389819e-08 -4.8947788708701397e-08 0.62500000000000000 0.31250000000000000 0.62499991398415666 0.31248588991058562 
0.68750000000000000 0.31250000000000000 0.0000000000000000 -7.5038586471799186e-08 -1.5246213077010854e-05 0.11679188286367947 1.9851369099668447e-08 -4.9617956769797962e-08 0.68750000000000000 0.31250000000000000 0.68749992496141354 0.31248475378692303 
0.75000000000000000 0.31250000000000000 0.0000000000000000 -5.0224714934176811e-08 -1.6300899288598788e-05 0.099409618817261736 1.9147764407627404e-08 -5.2087238369491830e-08 0.75000000000000000 0.31250000000000000 0.74999994977528506 0.31248369910071139 
0.81250000000000000 0.31250000000000000 0.0000000000000000 -1.5983987172133164e-08 -1.7275677994857295e-05 0.084929385837369017 1.9277810808588353e-08 -4.6093558164637708e-08 0.81250000000000000 0.31250000000000000 0.81249998401601287 0.31248272432200513 
0.87500000000000000 0.31250000000000000 0.0000000000000000 2.2968331842569170e-08 -1.8172458709868109e-05 0.073037818671330093 1.9702006413563246e-08 -6.9218609565225619e-08 0.87500000000000000 0.31250000000000000 0.87500002296833179 0.31248182754129011 
0.93750000000000000 0.31250000000000000 0.0000000000000000 6.1740415544044543e-08 -1.8994322556231174e-05 0.061020112586268972 1.9879413090945284e-08 2.5276597889212951e-08 0.93750000000000000 0.31250000000000000 0.93750006174041556 0.31248100567744380 
1.0000000000000000 0.31250000000000000 0.0000000000000000 9.5743397988265960e-08 -1.9746762986987549e-05 0.15893548265946830 0.0000000000000000 -3.0888655884753467e-07 1.0000000000000000 0.31250000000000000 1.0000000957433981 0.31248025323701301 
0.062500000000000000 0.37500000000000000 0.0000000000000000 1.5400245586813889e-08 -1.4568212160234339e-06 0.17465034743203889 -6.8018166396434263e-08 -5.7593753694705035e-07 0.062500000000000000 0.37500000000000000 0.062500015400245593 0.37499854317878395 
0.0000000000000000 0.37500000000000000 0.0000000000000000 2.5906767117656033e-24 0.0000000000000000 -0.67697969934409874 5.1961782208835887e-22 2.0519822741398658e-06 0.0000000000000000 0.37500000000000000 2.5906767117656033e-24 0.37500000000000000 
0.12500000000000000 0.37500000000000000 0.0000000000000000 6.5382810009295984e-08 -2.8853138042355228e-06 0.19980795602811299 -1.1927077351817263e-08 2.0300655885041419e-07 0.12500000000000000 0.37500000000000000 0.12500006538281003 0.37499711468619573 
0.18750000000000000 0.37500000000000000 0.0000000000000000 1.3738549281733223e-07 -4.3296713605268652e-06 0.25035563138112854 -2.9503925087710440e-08 -2.6322889729880444e-08 0.18750000000000000 0.37500000000000000 0.18750013738549279 0.37499567032863945 
0.25000000000000000 0.37500000000000000 0.0000000000000000 2.2196594879140884e-07 -5.7792971521275595e-06 0.29191575321796243 5.3407987180781961e-08 8.8418956340710935e-08 0.25000000000000000 0.37500000000000000 0.25000022196594879 0.37499422070284788 
0.31250000000000000 0.37500000000000000 0.0000000000000000 3.0955966099721291e-07 -7.2265188922725308e-06 0.26360824838680619 -1.6533824988180561e-07 -1.1001854911072102e-07 0.31250000000000000 0.37500000000000000 0.31250030955966102 0.37499277348110777 
0.37500000000000000 0.37500000000000000 0.0000000000000000 4.0335085965446807e-07 -8.6522475166703858e-06 0.66457676437075608 4.6028806618087311e-07 4.2942455666376260e-07 0.37500000000000000 0.37500000000000000 0.37500040335085966 0.37499134775248333 
0.43750000000000000 0.37500000000000000 0.0000000000000000 3.6832792366091064e-07 -1.0158124933059349e-05 0.21634536031279383 -7.2708158280509951e-08 -1.7268212182857708e-07 0.43750000000000000 0.37500000000000000 0.43750036832792366 0.37498984187506695 
0.50000000000000000 0.37500000000000000 0.0000000000000000 3.5875553086944391e-07 -1.1568614983615336e-05 0.21797932693190672 5.2335133170054673e-08 -6.7105912613527430e-09 0.50000000000000000 0.37500000000000000 0.50000035875553095 0.37498843138501631 
0.56250000000000000 0.37500000000000000 0.0000000000000000 3.6840787524020655e-07 -1.2891801410575611e-05 0.18686259572069841 1.6173543115045765e-08 -5.1948146432904302e-08 0.56250000000000000 0.37500000000000000 0.56250036840787521 0.37498710819858944 
0.62500000000000000 0.37500000000000000 0.0000000000000000 3.9541928236198267e-07 -1.4128358856083229e-05 0.16468042860378548 2.2756532498787371e-08 -4.5179092951868170e-08 0.62500000000000000 0.37500000000000000 0.62500039541928232 0.37498587164114389 
0.68750000000000000 0.37500000000000000 0.0000000000000000 4.3682842541131436e-07 -1.5278871595749335e-05 0.14496787167199754 1.9374891069057244e-08 -4.9783543689317061e-08 0.68750000000000000 0.37500000000000000 0.68750043682842543 0.37498472112840425 
0.75000000000000000 0.37500000000000000 0.0000000000000000 4.8923038683447009e-07 -1.6343974065461773e-05 0.12793302995650105 1.9378135063909595e-08 -5.1809028273796630e-08 0.75000000000000000 0.37500000000000000 0.75000048923038687 0.37498365602593453 
0.81250000000000000 0.37500000000000000 0.0000000000000000 5.4869352742113436e-07 -1.7324790092849546e-05 0.11324830587559113 1.9469228779142496e-08 -4.7259715054196152e-08 0.81250000000000000 0.37500000000000000 0.81250054869352739 0.37498267520990719 
0.87500000000000000 0.37500000000000000 0.0000000000000000 6.1081387894166430e-07 -1.8222887170224521e-05 0.10041313794324989 2.0107709465609336e-08 -6.8617377183276770e-08 0.87500000000000000 0.37500000000000000 0.87500061081387892 0.37498177711282971 