# For a description of the Tecplot format see the Tecplot User's guide.
#
Variables=x,y,z,s_u,s_v,s_p,x,y,ref_u,ref_v,u,v
Zone f=fepoint, n=4225, e=8192, et=quadrilateral, c=black
0.00000 0.00000 0.00000 0.0000000000000000 0.0000000000000000 3.3819895078114190 0.0000000000000000 0.0000000000000000 0.0000000000000000 0.0000000000000000 0.0000000000000000 0.0000000000000000 
0.015625000000000000 0.0000000000000000 0.0000000000000000 -6.9608217944804383e-07 -1.5107372819045258e-06 2.8329693917882426 7.1886116623107326e-06 0.0000000000000000 0.015625000000000000 0.0000000000000000 0.015624303917820553 -1.5107372819045258e-06 
0.015625000000000000 0.015625000000000000 0.0000000000000000 -1.8000483266746125e-07 -9.7241692826212408e-07 2.9421262386676967 4.7245317338969105e-06 1.4772382017504074e-06 0.015625000000000000 0.015625000000000000 0.015624819995167334 0.015624027583071737 
0.0000000000000000 0.015625000000000000 0.0000000000000000 0.0000000000000000 0.0000000000000000 3.1287153545809603 0.0000000000000000 4.2041660726152730e-06 0.0000000000000000 0.015625000000000000 0.0000000000000000 0.015625000000000000 
0.031250000000000000 0.0000000000000000 0.0000000000000000 -1.1481758120203529e-06 -2.3370536779194983e-06 2.2182070838912797 3.5388510078021448e-06 0.0000000000000000 0.031250000000000000 0.0000000000000000 0.031248851824187979 -2.3370536779194983e-06 
0.031250000000000000 0.015625000000000000 0.0000000000000000 -6.1893770246445441e-07 -1.9008599031496618e-06 2.3734118983063284 2.7975582518663080e-06 -1.1179863671142651e-06 0.031250000000000000 0.015625000000000000 0.031249381062297531 0.015623099140096850 
0.046875000000000000 0.0000000000000000 0.0000000000000000 -1.5146928428454278e-06 -2.9832473324110645e-06 1.8231386135487291 1.9621742954480225e-06 0.0000000000000000 0.046875000000000000 0.0000000000000000 0.046873485307157153 -2.9832473324110645e-06 
0.046875000000000000 0.015625000000000000 0.0000000000000000 -1.0054774141693441e-06 -2.6128215151662777e-06 1.9461346171084022 2.1436793851885690e-06 -7.5744397776673286e-07 0.046875000000000000 0.015625000000000000 0.046873994522585831 0.015622387178484834 
0.062500000000000000 0.0000000000000000 0.0000000000000000 -1.8366435604961523e-06 -3.5471682983939043e-06 1.5772937179379898 1.2618123932162389e-06 0.0000000000000000 0.062500000000000000 0.0000000000000000 0.062498163356439505 -3.5471682983939043e-06 
0.062500000000000000 0.015625000000000000 0.0000000000000000 -1.3508414602001955e-06 -3.2189060217954452e-06 1.6655017532633642 1.4250884692403167e-06 -6.4453399412946041e-07 0.062500000000000000 0.015625000000000000 0.062498649158539803 0.015621781093978203 
0.078125000000000000 0.0000000000000000 0.0000000000000000 -2.1305662233376900e-06 -4.0632517268617571e-06 1.4122703519189368 8.6423888796438635e-07 0.0000000000000000 0.078125000000000000 0.0000000000000000 0.078122869433776665 -4.0632517268617571e-06 
0.078125000000000000 0.015625000000000000 0.0000000000000000 -1.6653430749061295e-06 -3.7643126383851442e-06 1.4759223452937373 9.9656703010950289e-07 -4.6699596916047259e-07 0.078125000000000000 0.015625000000000000 0.078123334656925100 0.015621235687361614 
0.093750000000000000 0.0000000000000000 0.0000000000000000 -2.4044280421209306e-06 -4.5484758617793755e-06 1.2935071694601203 6.3898406272949467e-07 0.0000000000000000 0.093750000000000000 0.0000000000000000 0.093747595571957873 -4.5484758617793755e-06 
0.093750000000000000 0.015625000000000000 0.0000000000000000 -1.9557706059586020e-06 -4.2714741241941368e-06 1.3407426548358015 7.4032619069340950e-07 -3.4894196948675261e-07 0.093750000000000000 0.015625000000000000 0.093748044229394048 0.015620728525875803 
0.10937500000000000 0.0000000000000000 0.0000000000000000 -2.6625394506321310e-06 -5.0125909169936499e-06 1.2023558818780060 5.0450953931627763e-07 0.0000000000000000 0.10937500000000000 0.0000000000000000 0.10937233746054936 -5.0125909169936499e-06 
0.10937500000000000 0.015625000000000000 0.0000000000000000 -2.2267366477340594e-06 -4.7530253539954746e-06 1.2384696211718167 5.7972585329135743e-07 -2.6108960159301941e-07 0.10937500000000000 0.015625000000000000 0.10937277326335226 0.015620246974646005 
0.12500000000000000 0.0000000000000000 0.0000000000000000 -2.9074660141208223e-06 -5.4617780720783413e-06 1.1284672975893242 4.1954370897533426e-07 0.0000000000000000 0.12500000000000000 0.0000000000000000 0.12499709253398587 -5.4617780720783413e-06 
0.12500000000000000 0.015625000000000000 0.0000000000000000 -2.4814514061655115e-06 -5.2167585277571168e-06 1.1568517630902424 4.7518582348808833e-07 -1.9709221147659243e-07 0.12500000000000000 0.015625000000000000 0.12499751854859385 0.015619783241472243 
0.14062500000000000 0.0000000000000000 0.0000000000000000 -3.1408500120597199e-06 -5.9002037116620175e-06 1.0658998029782929 3.6312511229046899e-07 0.0000000000000000 0.14062500000000000 0.0000000000000000 0.14062185914998793 -5.9002037116620175e-06 
0.14062500000000000 0.015625000000000000 0.0000000000000000 -2.7221962991704736e-06 -5.6677844399637348e-06 1.0887678520305066 4.0453978743853910e-07 -1.4971558075212537e-07 0.14062500000000000 0.015625000000000000 0.14062227780370082 0.015619332215560036 
0.15625000000000000 0.0000000000000000 0.0000000000000000 -3.3638071174052267e-06 -6.3307942923828391e-06 1.0110935681288311 3.2393585561238690e-07 0.0000000000000000 0.15625000000000000 0.0000000000000000 0.15624663619288259 -6.3307942923828391e-06 
0.15625000000000000 0.015625000000000000 0.0000000000000000 -2.9506277482794078e-06 -6.1096102622222878e-06 1.0299298326501607 3.5495434502286001e-07 -1.1420513253768665e-07 0.15625000000000000 0.015625000000000000 0.15624704937225173 0.015618890389737778 
0.17187500000000000 0.0000000000000000 0.0000000000000000 -3.5771327846098349e-06 -6.7556634196120871e-06 0.96182374975759422 2.9561031647232216e-07 0.0000000000000000 0.17187500000000000 0.0000000000000000 0.17187142286721538 -6.7556634196120871e-06 
0.17187500000000000 0.015625000000000000 0.0000000000000000 -3.1679730953994793e-06 -6.5447221294735866e-06 0.97765617116141090 3.1895863970691991e-07 -8.7330299359130973e-08 0.17187500000000000 0.015625000000000000 0.17187183202690459 0.015618455277870527 
0.18750000000000000 0.0000000000000000 0.0000000000000000 -3.7814172823126294e-06 -7.1763664388584307e-06 0.91664350540567963 2.7441801628891700e-07 0.0000000000000000 0.18750000000000000 0.0000000000000000 0.18749621858271770 -7.1763664388584307e-06 
0.18750000000000000 0.015625000000000000 0.0000000000000000 -3.3751601977982881e-06 -6.9749233518029877e-06 0.93020529610170677 2.9203062686867209e-07 -6.6870670497861030e-08 0.18750000000000000 0.015625000000000000 0.18749662483980220 0.015618025076648197 
0.20312500000000000 0.0000000000000000 0.0000000000000000 -3.9771137847655912e-06 -7.5940611870890797e-06 0.87457821725348295 2.5807410893394171e-07 0.0000000000000000 0.20312500000000000 0.0000000000000000 0.20312102288621522 -7.5940611870890797e-06 
0.20312500000000000 0.015625000000000000 0.0000000000000000 -3.5729046448153277e-06 -7.4015420112349850e-06 0.88640620185065144 2.7133408633840521e-07 -5.1270666455412706e-08 0.20312500000000000 0.015625000000000000 0.20312142709535519 0.015617598457988767 
0.21875000000000000 0.0000000000000000 0.0000000000000000 -4.1645808529843627e-06 -8.0096142066372843e-06 0.83495152074020440 2.4512031288470578e-07 0.0000000000000000 0.21875000000000000 0.0000000000000000 0.21874583541914702 -8.0096142066372843e-06 
0.21875000000000000 0.015625000000000000 0.0000000000000000 -3.7617694423541636e-06 -7.8255645243366182e-06 0.84544753152495222 2.5502959851418420e-07 -3.9414927284786889e-08 0.21875000000000000 0.015625000000000000 0.21874623823055764 0.015617174435475665 
0.23437500000000000 0.0000000000000000 0.0000000000000000 -4.3441101705101704e-06 -8.4236735237218721e-06 0.79728253065220989 2.3459044989792123e-07 0.0000000000000000 0.23437500000000000 0.0000000000000000 0.23437065588982950 -8.4236735237218721e-06 
0.23437500000000000 0.015625000000000000 0.0000000000000000 -3.9422065316758393e-06 -8.2477250201588783e-06 0.80675291427912110 2.4188565872183500e-07 -3.0486284860520647e-08 0.23437500000000000 0.015625000000000000 0.23437105779346831 0.015616752274979840 
0.25000000000000000 0.0000000000000000 0.0000000000000000 -4.5159453642158706e-06 -8.8367200472275004e-06 0.76122280377570928 2.2582290318616171e-07 0.0000000000000000 0.25000000000000000 0.0000000000000000 0.24999548405463579 -8.8367200472275004e-06 
0.25000000000000000 0.015625000000000000 0.0000000000000000 -4.1145861384348064e-06 -8.6685671881496990e-06 0.76990462257900216 2.3105401871270362e-07 -2.3873928243064905e-08 0.25000000000000000 0.015625000000000000 0.24999588541386156 0.015616331432811851 
0.26562500000000000 0.0000000000000000 0.0000000000000000 -4.6802951928225023e-06 -9.2491048148966360e-06 0.72651626446232420 2.1835160436465582e-07 0.0000000000000000 0.26562500000000000 0.0000000000000000 0.26562031970480715 -9.2491048148966360e-06 
0.26562500000000000 0.015625000000000000 0.0000000000000000 -4.2792178443893679e-06 -9.0884883247123368e-06 0.73459517210723213 2.2193565878863398e-07 -1.9113000747820594e-08 0.26562500000000000 0.015625000000000000 0.26562072078215554 0.015615911511675287 
0.28125000000000000 0.0000000000000000 0.0000000000000000 -4.8373430355582114e-06 -9.6610765946374128e-06 0.69297287267334229 2.1184030133423658e-07 0.0000000000000000 0.28125000000000000 0.0000000000000000 0.28124516265696442 -9.6610765946374128e-06 
0.28125000000000000 0.015625000000000000 0.0000000000000000 -4.4363659424926156e-06 -9.5077714949465991e-06 0.70059562599332592 2.1409829874499572e-07 -1.5843962643078766e-08 0.28125000000000000 0.015625000000000000 0.28124556363405745 0.015615492228505055 
0.29687500000000000 0.0000000000000000 0.0000000000000000 -4.9872538662514500e-06 -1.0072802746188908e-05 0.66045080011402280 2.0604151483467682e-07 0.0000000000000000 0.29687500000000000 0.0000000000000000 0.29687001274613373 -1.0072802746188908e-05 
0.29687500000000000 0.015625000000000000 0.0000000000000000 -4.5862607828473572e-06 -9.9266095352519495e-06 0.66773421862962523 2.0722411304431178e-07 -1.3784659978937106e-08 0.29687500000000000 0.015625000000000000 0.29687041373921713 0.015615073390464749 
0.31250000000000000 0.0000000000000000 0.0000000000000000 -5.1301794676686764e-06 -1.0484385268542915e-05 0.62884404436969277 2.0077006622236549e-07 0.0000000000000000 0.31250000000000000 0.0000000000000000 0.31249486982053232 -1.0484385268542915e-05 
0.31250000000000000 0.015625000000000000 0.0000000000000000 -4.7291072640521758e-06 -1.0345123315501085e-05 0.63588155681015168 2.0107566075892784e-07 -1.2710739575308935e-08 0.31250000000000000 0.015625000000000000 0.31249527089273593 0.015614654876684500 
0.32812500000000000 0.0000000000000000 0.0000000000000000 -5.2662623833110046e-06 -1.0895873340400286e-05 0.59807362198391134 1.9588549081532010e-07 0.0000000000000000 0.32812500000000000 0.0000000000000000 0.32811973373761671 -1.0895873340400286e-05 
0.32812500000000000 0.015625000000000000 0.0000000000000000 -4.8650912618246702e-06 -1.0763375873707457e-05 0.60494013577106431 1.9547311436213320e-07 -1.2441662967208721e-08 0.32812500000000000 0.015625000000000000 0.32812013490873815 0.015614236624126294 
0.34375000000000000 0.0000000000000000 0.0000000000000000 -5.3956389442377497e-06 -1.1307273260463286e-05 0.56808118018030906 1.9128003945513956e-07 0.0000000000000000 0.34375000000000000 0.0000000000000000 0.34374460436105575 -1.1307273260463286e-05 
0.34375000000000000 0.015625000000000000 0.0000000000000000 -4.9943845460024772e-06 -1.1181383524683947e-05 0.57483676114728199 1.9027868483061909e-07 -1.2830551625448730e-08 0.34375000000000000 0.015625000000000000 0.34374500561545401 0.015613818616475317 
0.35937500000000000 0.0000000000000000 0.0000000000000000 -5.5184416063161118e-06 -1.1718556428793724e-05 0.53882428246226011 1.8687029573112699e-07 0.0000000000000000 0.35937500000000000 0.0000000000000000 0.35936948155839371 -1.1718556428793724e-05 
0.35937500000000000 0.015625000000000000 0.0000000000000000 -5.1171485750880027e-06 -1.1599124711128309e-05 0.54551697470935989 1.8538574314143204e-07 -1.3756701188014614e-08 0.35937500000000000 0.015625000000000000 0.35936988285142490 0.015613400875288870 
0.37500000000000000 0.0000000000000000 0.0000000000000000 -5.6348007659897147e-06 -1.2129665830696239e-05 0.51027287765598806 1.8259119360115999e-07 0.0000000000000000 0.37500000000000000 0.0000000000000000 0.37499436519923401 -1.2129665830696239e-05 
0.37500000000000000 0.015625000000000000 0.0000000000000000 -5.2335374471602637e-06 -1.2016547143643906e-05 0.51694089141437960 1.8071107586321153e-07 -1.5119985167109123e-08 0.37500000000000000 0.015625000000000000 0.37499476646255286 0.015612983452856355 
0.39062500000000000 0.0000000000000000 0.0000000000000000 -5.7448461771547925e-06 -1.2540521360640793e-05 0.48240662187440692 1.7839166602091015e-07 0.0000000000000000 0.39062500000000000 0.0000000000000000 0.39061925515382284 -1.2540521360640793e-05 
0.39062500000000000 0.015625000000000000 0.0000000000000000 -5.3437002097842928e-06 -1.2433573625276466e-05 0.48908004960936197 1.7618927531239595e-07 -1.6836615616130446e-08 0.39062500000000000 0.015625000000000000 0.39061965629979017 0.015612566426374723 
0.40625000000000000 0.0000000000000000 0.0000000000000000 -5.8487080602506443e-06 -1.2951024236860295e-05 0.45521282593501139 1.7423142517007283e-07 0.0000000000000000 0.40625000000000000 0.0000000000000000 0.40624415129193975 -1.2951024236860295e-05 
0.40625000000000000 0.015625000000000000 0.0000000000000000 -5.4477826782308637e-06 -1.2850106851610848e-05 0.46191500117062673 1.7176861091826593e-07 -1.8835890910048829e-08 0.40625000000000000 0.015625000000000000 0.40624455221732175 0.015612149893148389 
0.42187500000000000 0.0000000000000000 0.0000000000000000 -5.9465179724351709e-06 -1.3361060695451067e-05 0.42868486868139738 1.7007854280638911e-07 0.0000000000000000 0.42187500000000000 0.0000000000000000 0.42186905348202758 -1.3361060695451067e-05 
0.42187500000000000 0.015625000000000000 0.0000000000000000 -5.5459288735103210e-06 -1.3266033403872892e-05 0.43543345051684801 1.6740794627470435e-07 -2.1057669841320229e-08 0.42187500000000000 0.015625000000000000 0.42186945407112647 0.015611733966596127 
0.43750000000000000 0.0000000000000000 0.0000000000000000 -6.0384094917151689e-06 -1.3770505108239001e-05 0.40282096232246928 1.6590760628998830e-07 0.0000000000000000 0.43750000000000000 0.0000000000000000 0.43749396159050830 -1.3770505108239001e-05 
0.43750000000000000 0.015625000000000000 0.0000000000000000 -5.6382821645572663e-06 -1.3681227099899343e-05 0.40962880654638195 1.6307440637686302e-07 -2.3450385586042997e-08 0.43750000000000000 0.015625000000000000 0.43749436171783546 0.015611318772900102 
0.45312500000000000 0.0000000000000000 0.0000000000000000 -6.1245187561868320e-06 -1.4179222636156013e-05 0.37762318716169335 1.6169829557914695e-07 0.0000000000000000 0.45312500000000000 0.0000000000000000 0.45311887548124380 -1.4179222636156013e-05 
0.45312500000000000 0.015625000000000000 0.0000000000000000 -5.7249861791248859e-06 -1.4095551829780027e-05 0.38449904919137662 1.5874159131344545e-07 -2.5969464547158169e-08 0.45312500000000000 0.015625000000000000 0.45311927501382082 0.015610904448170220 
0.46875000000000000 0.0000000000000000 0.0000000000000000 -6.2049848908257139e-06 -1.4587071505890526e-05 0.35309673482767279 1.5743427291775661e-07 0.0000000000000000 0.46875000000000000 0.0000000000000000 0.46874379501510915 -1.4587071505890526e-05 
0.46875000000000000 0.015625000000000000 0.0000000000000000 -5.8061855333593168e-06 -1.4508863975110519e-05 0.36004583840420606 1.5438819393052438e-07 -2.8576051158661719e-08 0.46875000000000000 0.015625000000000000 0.46874419381446669 0.015610491136024890 
0.48437500000000000 0.0000000000000000 0.0000000000000000 -6.2799503476776564e-06 -1.4993904979729046e-05 0.32924931444677014 1.5310230839182807e-07 0.0000000000000000 0.48437500000000000 0.0000000000000000 0.48436872004965231 -1.4993904979729046e-05 
0.48437500000000000 0.015625000000000000 0.0000000000000000 -5.8820264191205192e-06 -1.4921014490187065e-05 0.33627381177731203 1.4999692054954848e-07 -3.1235965354220392e-08 0.48437500000000000 0.015625000000000000 0.48436911797358090 0.015610078985509812 
0.50000000000000000 0.0000000000000000 0.0000000000000000 -6.3495611802438832e-06 -1.5399573075123810e-05 0.30609068713673693 1.4869158625571181e-07 0.0000000000000000 0.50000000000000000 0.0000000000000000 0.49999365043881977 -1.5399573075123810e-05 
0.50000000000000000 0.015625000000000000 0.0000000000000000 -5.9526570798544068e-06 -1.5331850708111820e-05 0.31319003009473573 1.4555364249568821e-07 -3.3918837786841038e-08 0.50000000000000000 0.015625000000000000 0.49999404734292013 0.015609668149291890 
0.51562500000000000 0.0000000000000000 0.0000000000000000 -6.4139672689060112e-06 -1.5803924080430320e-05 0.28363230207816476 1.4419315215570035e-07 0.0000000000000000 0.51562500000000000 0.0000000000000000 0.51561858603273114 -1.5803924080430320e-05 
0.51562500000000000 0.015625000000000000 0.0000000000000000 -6.0182281994706883e-06 -1.5741217923249061e-05 0.29080353953594573 1.4104672627667195e-07 -3.6597381200768639e-08 0.51562500000000000 0.015625000000000000 0.51561898177180054 0.015609258782076751 
0.53125000000000000 0.0000000000000000 0.0000000000000000 -6.4733225111009481e-06 -1.6206805905625393e-05 0.26188701312826951 1.3959947229323523e-07 0.0000000000000000 0.53125000000000000 0.0000000000000000 0.53124352667748886 -1.6206805905625393e-05 
0.53125000000000000 0.015625000000000000 0.0000000000000000 -6.0788932237228080e-06 -1.6148960792793814e-05 0.26912502607847960 1.3646650457619792e-07 -3.9246766091514722e-08 0.53125000000000000 0.015625000000000000 0.53124392110677643 0.015608851039207205 
0.54687500000000000 0.0000000000000000 0.0000000000000000 -6.5277849874150811e-06 -1.6608067301043273e-05 0.24086885908188441 1.3490408350418420e-07 0.0000000000000000 0.54687500000000000 0.0000000000000000 0.54686847221501256 -1.6608067301043273e-05 
0.54687500000000000 0.015625000000000000 0.0000000000000000 -6.1348086296464360e-06 -1.6554924593677487e-05 0.24816654260479995 1.3180486059741274e-07 -4.1844075948718486e-08 0.54687500000000000 0.015625000000000000 0.54686886519137035 0.015608445075406320 
0.56250000000000000 0.0000000000000000 0.0000000000000000 -6.5775171126598026e-06 -1.7007558972823958e-05 0.22059289366638832 1.3010131917780842e-07 0.0000000000000000 0.56250000000000000 0.0000000000000000 0.56249342248288736 -1.7007558972823958e-05 
0.56250000000000000 0.015625000000000000 0.0000000000000000 -6.1861341554169057e-06 -1.6958956366138686e-05 0.22794129280785316 1.2705490601122356e-07 -4.4367822679377440e-08 0.56250000000000000 0.015625000000000000 0.56249381386584474 0.015608041043633862 
0.57812500000000000 0.0000000000000000 0.0000000000000000 -6.6226857791932822e-06 -1.7405134620541796e-05 0.20107505345962962 1.2518610052382057e-07 0.0000000000000000 0.57812500000000000 0.0000000000000000 0.57811837731422078 -1.7405134620541796e-05 
0.57812500000000000 0.015625000000000000 0.0000000000000000 -6.2330330003280937e-06 -1.7360905971668142e-05 0.20846345854869819 1.2221073862949137e-07 -4.6797506762857322e-08 0.57812500000000000 0.015625000000000000 0.57811876696699971 0.015607639094028332 
0.59375000000000000 0.0000000000000000 0.0000000000000000 -6.6634624981676083e-06 -1.7800651920148143e-05 0.18233205332651128 1.2015378641212202e-07 0.0000000000000000 0.59375000000000000 0.0000000000000000 0.59374333653750189 -1.7800651920148143e-05 
0.59375000000000000 0.015625000000000000 0.0000000000000000 -6.2756720023174847e-06 -1.7760627090436513e-05 0.18974805907722966 1.1726727059846480e-07 -4.9113209646837804e-08 0.59375000000000000 0.015625000000000000 0.59374372432799760 0.015607239372909561 
0.60937500000000000 0.0000000000000000 0.0000000000000000 -6.7000235429227800e-06 -1.8193973473757059e-05 0.16438129979966790 1.1500007816135430e-07 0.0000000000000000 0.60937500000000000 0.0000000000000000 0.60936829997645703 -1.8193973473757059e-05 
0.60937500000000000 0.015625000000000000 0.0000000000000000 -6.3142217984378857e-06 -1.8157978181549167e-05 0.17181083163424060 1.1222012179309717e-07 -5.1295208150827958e-08 0.60937500000000000 0.015625000000000000 0.60936868577820158 0.015606842021818451 
0.62500000000000000 0.0000000000000000 0.0000000000000000 -6.7325500973451908e-06 -1.8584967746811950e-05 0.14724081314732060 1.0972097858293195e-07 0.0000000000000000 0.62500000000000000 0.0000000000000000 0.62499326744990269 -1.8584967746811950e-05 
0.62500000000000000 0.015625000000000000 0.0000000000000000 -6.3488569717985795e-06 -1.8552823428414644e-05 0.15466812350131826 1.0706557655935013e-07 -5.3323602389146881e-08 0.62500000000000000 0.015625000000000000 0.62499365114302818 0.015606447176571586 
0.64062500000000000 0.0000000000000000 0.0000000000000000 -6.7612284105841327e-06 -1.8973510012716703e-05 0.13092914869945402 1.0431280748844476e-07 0.0000000000000000 0.64062500000000000 0.0000000000000000 0.64061823877158941 -1.8973510012716703e-05 
0.64062500000000000 0.015625000000000000 0.0000000000000000 -6.3797561866728910e-06 -1.8945033691082963e-05 0.13833678559845283 1.0180060526701153e-07 -5.5177950145463883e-08 0.64062500000000000 0.015625000000000000 0.64061862024381344 0.015606054966308918 
0.65625000000000000 0.0000000000000000 0.0000000000000000 -6.7862499579976017e-06 -1.9359483325044347e-05 0.11546530732257664 9.8772279014959170e-08 0.0000000000000000 0.65625000000000000 0.0000000000000000 0.65624321375004202 -1.9359483325044347e-05 
0.65625000000000000 0.015625000000000000 0.0000000000000000 -6.4071023116028008e-06 -1.9334487487555827e-05 0.12283405725120038 9.6422955603089230e-08 -5.6836901927807332e-08 0.65625000000000000 0.015625000000000000 0.65624359289768830 0.015605665512512442 
0.67187500000000000 0.0000000000000000 0.0000000000000000 -6.8078116064881064e-06 -1.9742779537924922e-05 0.10086862368628841 9.3096649792272612e-08 0.0000000000000000 0.67187500000000000 0.0000000000000000 0.67186819218839355 -1.9742779537924922e-05 
0.67187500000000000 0.015625000000000000 0.0000000000000000 -6.4310825283300484e-06 -1.9721072026778848e-05 0.10817743072487812 9.0931322345950436e-08 -5.8277832235228289e-08 0.67187500000000000 0.015625000000000000 0.67186856891747171 0.015605278927973221 
0.68750000000000000 0.0000000000000000 0.0000000000000000 -6.8261157803792732e-06 -2.0123300396149247e-05 0.087158619045461336 8.7283951469909656e-08 0.0000000000000000 0.68750000000000000 0.0000000000000000 0.68749317388421949 -2.0123300396149247e-05 
0.68750000000000000 0.015625000000000000 0.0000000000000000 -6.4518884221426824e-06 -2.0104684317300728e-05 0.094384482479345763 8.5325608889164340e-08 -5.9476464219759242e-08 0.68750000000000000 0.015625000000000000 0.68749354811157781 0.015604895315682698 
0.70312500000000000 0.0000000000000000 0.0000000000000000 -6.8413706215324622e-06 -2.0500958717914187e-05 0.074354802513367763 8.1333326871103330e-08 0.0000000000000000 0.70312500000000000 0.0000000000000000 0.70311815862937843 -2.0500958717914187e-05 
0.70312500000000000 0.015625000000000000 0.0000000000000000 -6.4697160466253196e-06 -2.0485232377461458e-05 0.081472655716717454 7.9607299282321526e-08 -6.0406487194326085e-08 0.70312500000000000 0.015625000000000000 0.70311853028395344 0.015604514767622537 
0.71875000000000000 0.0000000000000000 0.0000000000000000 -6.8537901343174336e-06 -2.0875679694991075e-05 0.062476400999381676 7.5245496643844284e-08 0.0000000000000000 0.71875000000000000 0.0000000000000000 0.71874314620986579 -2.0875679694991075e-05 
0.71875000000000000 0.015625000000000000 0.0000000000000000 -6.4847659526961750e-06 -2.0862636575501680e-05 0.069458975515334684 7.3779966414088824e-08 -6.1039169939832513e-08 0.71875000000000000 0.015625000000000000 0.71874351523404734 0.015604137363424498 
0.73437500000000000 0.0000000000000000 0.0000000000000000 -6.8635943020701645e-06 -2.1247402337441512e-05 0.051541992828937261 6.9023393359822155e-08 0.0000000000000000 0.73437500000000000 0.0000000000000000 0.73436813640569787 -2.1247402337441512e-05 
0.73437500000000000 0.015625000000000000 0.0000000000000000 -6.4972431680282377e-06 -2.1236831131240109e-05 0.058359673454336923 6.7849950587818994e-08 -6.1342978344723889e-08 0.73437500000000000 0.015625000000000000 0.73436850275683196 0.015603763168868761 
0.75000000000000000 0.0000000000000000 0.0000000000000000 -6.8710091564237161e-06 -2.1616081092845839e-05 0.041569013166859618 6.2673013741182749e-08 0.0000000000000000 0.75000000000000000 0.0000000000000000 0.74999312899084358 -2.1616081092845839e-05 
0.75000000000000000 0.015625000000000000 0.0000000000000000 -6.5073571082703174e-06 -2.1607765815025206e-05 0.048189692886317186 6.1827253384083721e-08 -6.1283214916803106e-08 0.75000000000000000 0.015625000000000000 0.74999349264289172 0.015603392234184972 
0.76562500000000000 0.0000000000000000 0.0000000000000000 -6.8762667738545294e-06 -2.1981687673332647e-05 0.032573090261715780 5.6204557927012862e-08 0.0000000000000000 0.76562500000000000 0.0000000000000000 0.76561812373322613 -2.1981687673332647e-05 
0.76562500000000000 0.015625000000000000 0.0000000000000000 -6.5153213956452560e-06 -2.1975407884601598e-05 0.038962038650905979 5.5726704409790329e-08 -6.0821712426571312e-08 0.76562500000000000 0.015625000000000000 0.76561848467860438 0.015603024592115400 
0.78125000000000000 0.0000000000000000 0.0000000000000000 -6.8796051641749892e-06 -2.2344213127414725e-05 0.024567159738718414 4.9633949452943861e-08 0.0000000000000000 0.78125000000000000 0.0000000000000000 0.78124312039483579 -2.2344213127414725e-05 
0.78125000000000000 0.015625000000000000 0.0000000000000000 -6.5213535531965984e-06 -2.2339744306359351e-05 0.030686925864357784 4.9569472741680971e-08 -5.9916637649802861e-08 0.78125000000000000 0.015625000000000000 0.78124347864644683 0.015602660255693639 
0.79687500000000000 0.0000000000000000 0.0000000000000000 -6.8812680023814734e-06 -2.2703670197511514e-05 0.017560289342398068 4.2984859653312226e-08 0.0000000000000000 0.79687500000000000 0.0000000000000000 0.79686811873199759 -2.2703670197511514e-05 
0.79687500000000000 0.015625000000000000 0.0000000000000000 -6.5256745338258748e-06 -2.2700784314039777e-05 0.023370671576542670 4.3385006694693903e-08 -5.8522500202631689e-08 0.79687500000000000 0.015625000000000000 0.79686847432546604 0.015602299215685960 
0.81250000000000000 0.0000000000000000 0.0000000000000000 -6.8815041365259684e-06 -2.3060096007510484e-05 0.011556128921132650 3.6291402355809259e-08 0.0000000000000000 0.81250000000000000 0.0000000000000000 0.81249311849586336 -2.3060096007510484e-05 
0.81250000000000000 0.015625000000000000 0.0000000000000000 -6.5285080319255100e-06 -2.3058562364925066e-05 0.017014261404074742 3.7213493205321275e-08 -5.6590521180592940e-08 0.81250000000000000 0.015625000000000000 0.81249347149196804 0.015601941437635075 
0.82812500000000000 0.0000000000000000 0.0000000000000000 -6.8805667775141785e-06 -2.3413555126573342e-05 0.0065508816438234084 2.9601689172928026e-08 0.0000000000000000 0.82812500000000000 0.0000000000000000 0.82811811943322244 -2.3413555126573342e-05 
0.82812500000000000 0.015625000000000000 0.0000000000000000 -6.5300795114795649e-06 -2.3413141559739541e-05 0.011611513256027689 3.1108897764129963e-08 -5.4069624064617549e-08 0.82812500000000000 0.015625000000000000 0.82811846992048854 0.015601586858440262 
0.84375000000000000 0.0000000000000000 0.0000000000000000 -6.8787122379678310e-06 -2.3764143053051794e-05 0.0025306775366599758 2.2982506153287611e-08 0.0000000000000000 0.84375000000000000 0.0000000000000000 0.84374312128776208 -2.3764143053051794e-05 
0.84375000000000000 0.015625000000000000 0.0000000000000000 -6.5306148676162567e-06 -2.3764617595450544e-05 0.0071467577647317286 2.5142613822724072e-08 -5.0908426735480268e-08 0.84375000000000000 0.015625000000000000 0.84374346938513234 0.015601235382404549 
0.85937500000000000 0.0000000000000000 0.0000000000000000 -6.8761980302884395e-06 -2.4111990150477248e-05 -0.00053176878202577710 1.6525232993809234e-08 0.0000000000000000 0.85937500000000000 0.0000000000000000 0.85936812380196981 -2.4111990150477248e-05 
0.85937500000000000 0.015625000000000000 0.0000000000000000 -6.5303386184010422e-06 -2.4113123314569989e-05 0.0035919738157646451 1.9407422497670124e-08 -4.7059016760465158e-08 0.85937500000000000 0.015625000000000000 0.85936846966138158 0.015600886876685429 
0.87500000000000000 0.0000000000000000 0.0000000000000000 -6.8732800492188884e-06 -2.4457266034527540e-05 -0.0026812966241306843 1.0353188675105305e-08 0.0000000000000000 0.87500000000000000 0.0000000000000000 0.87499312671995078 -2.4457266034527540e-05 
0.87500000000000000 0.015625000000000000 0.0000000000000000 -6.5294714994010345e-06 -2.4458833889279140e-05 0.00090337749176672372 1.4021494891406331e-08 -4.2483007794278454e-08 0.87500000000000000 0.015625000000000000 0.87499347052850063 0.015600541166110720 
0.89062500000000000 0.0000000000000000 0.0000000000000000 -6.8702084363373762e-06 -2.4800184332930230e-05 -0.0039851765947254312 4.6303198568638001e-09 0.0000000000000000 0.89062500000000000 0.0000000000000000 0.89061812979156363 -2.4800184332930230e-05 
0.89062500000000000 0.015625000000000000 0.0000000000000000 -6.5282273036744636e-06 -2.4801972611752068e-05 -0.00098236609418108213 9.1300566096369482e-09 -3.7163542249843334e-08 0.89062500000000000 0.015625000000000000 0.89061847177269637 0.015600198027388245 
0.90625000000000000 0.0000000000000000 0.0000000000000000 -6.8672215284261510e-06 -2.5141007560796741e-05 -0.0045384541868848287 -4.3376475881565279e-10 0.0000000000000000 0.90625000000000000 0.0000000000000000 0.90624313277847157 -2.5141007560796741e-05 