# For a description of the Tecplot format see the Tecplot User's guide.
#
Variables=x,y,z,s_u,s_v,s_p,x,y,ref_u,ref_v,u,v
Zone f=fepoint, n=9409, e=18432, et=quadrilateral, c=black
0.00000 0.00000 0.00000 0.0000000000000000 0.0000000000000000 3.7552532590405128 0.0000000000000000 0.0000000000000000 0.0000000000000000 0.0000000000000000 0.0000000000000000 0.0000000000000000 
0.010416666666666666 0.0000000000000000 0.0000000000000000 -5.5672244980795457e-07 -1.1962085182662935e-06 3.2355755609458310 9.8879783363516493e-06 0.0000000000000000 0.010416666666666666 0.0000000000000000 0.010416109944216859 -1.1962085182662935e-06 
0.010416666666666666 0.010416666666666666 0.0000000000000000 -1.4886281740149997e-07 -7.7664127984649014e-07 3.3347329607687684 6.6770082937500114e-06 2.1856270904695384e-06 0.010416666666666666 0.010416666666666666 0.010416517803849265 0.010415890025386820 
0.0000000000000000 0.010416666666666666 0.0000000000000000 0.0000000000000000 0.0000000000000000 3.5217453060024888 0.0000000000000000 5.4449568753155222e-06 0.0000000000000000 0.010416666666666666 0.0000000000000000 0.010416666666666666 
0.020833333333333332 0.0000000000000000 0.0000000000000000 -9.1165994717545363e-07 -1.8568385251622844e-06 2.6194421307627369 5.9473509940861338e-06 0.0000000000000000 0.020833333333333332 0.0000000000000000 0.020832421673386156 -1.8568385251622844e-06 
0.020833333333333332 0.010416666666666666 0.0000000000000000 -4.9380517715773932e-07 -1.5155197871087694e-06 2.7726722981711021 4.4528677397812728e-06 -1.3369284326366997e-06 0.020833333333333332 0.010416666666666666 0.020832839528156174 0.010415151146879560 
0.031250000000000000 0.0000000000000000 0.0000000000000000 -1.1946227873498773e-06 -2.3701640289684104e-06 2.1791334062858283 3.4994000748899444e-06 0.0000000000000000 0.031250000000000000 0.0000000000000000 0.031248805377212651 -2.3701640289684104e-06 
0.031250000000000000 0.010416666666666666 0.0000000000000000 -7.9516468375248229e-07 -2.0805557491492086e-06 2.3152054405475853 3.5817024479396302e-06 -1.1284563946143220e-06 0.031250000000000000 0.010416666666666666 0.031249204835316246 0.010414586110917516 
0.041666666666666664 0.0000000000000000 0.0000000000000000 -1.4410041871250569e-06 -2.8128353229554506e-06 1.8879888374123188 2.3133935389731822e-06 0.0000000000000000 0.041666666666666664 0.0000000000000000 0.041665225662479537 -2.8128353229554506e-06 
0.041666666666666664 0.010416666666666666 0.0000000000000000 -1.0633999084007856e-06 -2.5567189118717211e-06 1.9932192932953254 2.5312345066809235e-06 -1.0896780373317824e-06 0.041666666666666664 0.010416666666666666 0.041665603266758271 0.010414109947754794 
0.052083333333333336 0.0000000000000000 0.0000000000000000 -1.6652510796435554e-06 -3.2126120133341158e-06 1.6877441049134412 1.5975758133608392e-06 0.0000000000000000 0.052083333333333336 0.0000000000000000 0.052081668082253695 -3.2126120133341158e-06 
0.052083333333333336 0.010416666666666666 0.0000000000000000 -1.3074925174457717e-06 -2.9796117079503735e-06 1.7675017003566198 1.8023484473199654e-06 -8.6046191644655670e-07 0.052083333333333336 0.010416666666666666 0.052082025840815893 0.010413687054958716 
0.062500000000000000 0.0000000000000000 0.0000000000000000 -1.8743538550367149e-06 -3.5834598640694814e-06 1.5439192714201979 1.1620362233756770e-06 0.0000000000000000 0.062500000000000000 0.0000000000000000 0.062498125646144966 -3.5834598640694814e-06 
0.062500000000000000 0.010416666666666666 0.0000000000000000 -1.5332499773068327e-06 -3.3673997237652651e-06 1.6050395270505131 1.3288187980026774e-06 -6.8615693907910627e-07 0.062500000000000000 0.010416666666666666 0.062498466750022692 0.010413299266942901 
0.072916666666666671 0.0000000000000000 0.0000000000000000 -2.0720806058916621e-06 -3.9335402494326258e-06 1.4357890117710088 8.8951208994956939e-07 0.0000000000000000 0.072916666666666671 0.0000000000000000 0.072914594586060782 -3.9335402494326258e-06 
0.072916666666666671 0.010416666666666666 0.0000000000000000 -1.7445605081711721e-06 -3.7305585836877299e-06 1.4835785238450956 1.0188805763843909e-06 -5.4501229496030983e-07 0.072916666666666671 0.010416666666666666 0.072914922106158506 0.010412936108082978 
0.083333333333333329 0.0000000000000000 0.0000000000000000 -2.2606703165798857e-06 -4.2681068551426326e-06 1.3508542717240652 7.1216804073187113e-07 0.0000000000000000 0.083333333333333329 0.0000000000000000 0.083331072663016745 -4.2681068551426326e-06 
0.083333333333333329 0.010416666666666666 0.0000000000000000 -1.9441234660843805e-06 -4.0756765258651146e-06 1.3890375064544569 8.1080924234980862e-07 -4.3660990057975646e-07 0.083333333333333329 0.010416666666666666 0.083331389209867254 0.010412590990140800 
0.093750000000000000 0.0000000000000000 0.0000000000000000 -2.4415621341416134e-06 -4.5907649828085501e-06 1.2814966856223045 5.9214198911779981e-07 0.0000000000000000 0.093750000000000000 0.0000000000000000 0.093747558437865863 -4.5907649828085501e-06 
0.093750000000000000 0.010416666666666666 0.0000000000000000 -2.1338643850773645e-06 -4.4071607729671197e-06 1.3126350317408872 6.6766941225649945e-07 -3.5300002745617710e-07 0.093750000000000000 0.010416666666666666 0.093747866135614921 0.010412259505893697 
0.10416666666666667 0.0000000000000000 0.0000000000000000 -2.6157423143536580e-06 -4.9041062001565290e-06 1.2229643970914486 5.0784210715913843e-07 0.0000000000000000 0.10416666666666667 0.0000000000000000 0.10416405092435231 -4.9041062001565290e-06 
0.10416666666666667 0.010416666666666666 0.0000000000000000 -2.3151912970259226e-06 -4.7281051276439316e-06 1.2488251179774046 5.6626501683395796e-07 -2.8794985482804690e-07 0.10416666666666667 0.010416666666666666 0.10416435147536963 0.010411938561539021 
0.11458333333333333 0.0000000000000000 0.0000000000000000 -2.7839214605216974e-06 -5.2100587194161585e-06 1.1722073277435907 4.4658414430109005e-07 0.0000000000000000 0.11458333333333333 0.0000000000000000 0.11458054941187280 -5.2100587194161585e-06 
0.11458333333333333 0.010416666666666666 0.0000000000000000 -2.4891562193243449e-06 -5.0407649223688631e-06 1.1940297709351373 4.9233427502253315e-07 -2.3670138591646399e-07 0.11458333333333333 0.010416666666666666 0.11458084417711401 0.010411625901744298 
0.12500000000000000 0.0000000000000000 0.0000000000000000 -2.9466316023490787e-06 -5.5100955958989800e-06 1.1272054361205346 4.0071829891764254e-07 0.0000000000000000 0.12500000000000000 0.0000000000000000 0.12499705336839766 -5.5100955958989800e-06 
0.12500000000000000 0.010416666666666666 0.0000000000000000 -2.6565604735345868e-06 -5.3468341794295522e-06 1.1458780700928053 4.3698680316010145e-07 -1.9581879331662598e-07 0.12500000000000000 0.010416666666666666 0.12499734343952647 0.010411319832487236 
0.13541666666666666 0.0000000000000000 0.0000000000000000 -3.1042829686074130e-06 -5.8053654773177978e-06 1.0865780690714855 3.6548389109548353e-07 0.0000000000000000 0.13541666666666666 0.0000000000000000 0.13541356238369806 -5.8053654773177978e-06 
0.13541666666666666 0.010416666666666666 0.0000000000000000 -2.8180251960061519e-06 -5.6476157628093698e-06 1.1027529219314838 3.9455707639012843e-07 -1.6283804664587628e-07 0.13541666666666666 0.010416666666666666 0.13541384864147066 0.010411019050903856 
0.14583333333333334 0.0000000000000000 0.0000000000000000 -3.2571992400791316e-06 -6.0967785442297432e-06 1.0493530153339103 3.3781810547408344e-07 0.0000000000000000 0.14583333333333334 0.0000000000000000 0.14583007613409327 -6.0967785442297432e-06 
0.14583333333333334 0.010416666666666666 0.0000000000000000 -2.9740396143208202e-06 -5.9441306026856861e-06 1.0635195475654446 3.6134574243338812e-07 -1.3597879879578683e-07 0.14583333333333334 0.010416666666666666 0.14583035929371901 0.010410722536063980 
0.15625000000000000 0.0000000000000000 0.0000000000000000 -3.4056406132773130e-06 -6.3850651526953216e-06 1.0148269600331536 3.1568505150467778e-07 0.0000000000000000 0.15625000000000000 0.0000000000000000 0.15624659435938673 -6.3850651526953216e-06 
0.15625000000000000 0.010416666666666666 0.0000000000000000 -3.1249947657446899e-06 -6.2371905606675948e-06 1.0273602620936402 3.3487257253211075e-07 -1.1393702407323674e-07 0.15625000000000000 0.010416666666666666 0.15624687500523426 0.010410429476105999 
0.16666666666666666 0.0000000000000000 0.0000000000000000 -3.5498195636503991e-06 -6.6708171282968630e-06 0.98247895953844200 2.9768889087791255e-07 0.0000000000000000 0.16666666666666666 0.0000000000000000 0.16666311684710300 -6.6708171282968630e-06 
0.16666666666666666 0.010416666666666666 0.0000000000000000 -3.2712074819085361e-06 -6.5274487012220005e-06 0.99367176398674140 3.1343029100117416e-07 -9.5741499627654915e-08 0.16666666666666666 0.010416666666666666 0.16666339545918474 0.010410139217965445 
0.17708333333333334 0.0000000000000000 0.0000000000000000 -3.6899120090978296e-06 -6.9545176291893732e-06 0.95191527463029013 2.8284519638955867e-07 0.0000000000000000 0.17708333333333334 0.0000000000000000 0.17707964342132423 -6.9545176291893732e-06 
0.17708333333333334 0.010416666666666666 0.0000000000000000 -3.4129377419851798e-06 -6.8154350015190900e-06 0.96199967928899299 2.9581393674047825e-07 -8.0656508371442563e-08 0.17708333333333334 0.010416666666666666 0.17707992039559137 0.010409851231665145 
0.18750000000000000 0.0000000000000000 0.0000000000000000 -3.8260654450728232e-06 -7.2365632413305921e-06 0.92283318606119080 2.7044205752142393e-07 0.0000000000000000 0.18750000000000000 0.0000000000000000 0.18749617393455495 -7.2365632413305921e-06 
0.18750000000000000 0.010416666666666666 0.0000000000000000 -3.5504014293353517e-06 -7.1015823670828593e-06 0.93199573283893322 2.8115330968034145e-07 -6.8115664133878214e-08 0.18750000000000000 0.010416666666666666 0.18749644959857067 0.010409565084299584 
0.19791666666666666 0.0000000000000000 0.0000000000000000 -3.9584050107557959e-06 -7.5172806526187954e-06 0.89499659951127397 2.5995323746611793e-07 0.0000000000000000 0.19791666666666666 0.0000000000000000 0.19791270826165594 -7.5172806526187954e-06 
0.19791666666666666 0.010416666666666666 0.0000000000000000 -3.6837798500801244e-06 -7.3862460051869152e-06 0.90338897669401519 2.6880685658201435e-07 -5.7676431520992338e-08 0.19791666666666666 0.010416666666666666 0.19791298288681658 0.010409280420661480 
0.20833333333333334 0.0000000000000000 0.0000000000000000 -4.0870380981557278e-06 -7.7969394550803821e-06 0.86821917065296361 2.5098229439347830e-07 0.0000000000000000 0.20833333333333334 0.0000000000000000 0.20832924629523519 -7.7969394550803821e-06 
0.20833333333333334 0.010416666666666666 0.0000000000000000 -3.8132269352030513e-06 -7.6697181300408413e-06 0.87596596938185789 2.5829284751559200e-07 -4.8988391853206637e-08 0.20833333333333334 0.010416666666666666 0.20832952010639813 0.010408996948536626 
0.21875000000000000 0.0000000000000000 0.0000000000000000 -4.2120579091888134e-06 -8.0757621249555091e-06 0.84235235572466360 2.4322562262662803e-07 0.0000000000000000 0.21875000000000000 0.0000000000000000 0.21874578794209079 -8.0757621249555091e-06 
0.21875000000000000 0.010416666666666666 0.0000000000000000 -3.9388747610301755e-06 -7.9522393129436372e-06 0.84955679981538523 2.4924366641534582e-07 -4.1770722085370209e-08 0.21875000000000000 0.010416666666666666 0.21874606112523898 0.010408714427353723 
0.22916666666666666 0.0000000000000000 0.0000000000000000 -4.3335462374399006e-06 -8.3539319088162279e-06 0.81727677078276384 2.3644737386733919e-07 0.0000000000000000 0.22916666666666666 0.0000000000000000 0.22916233312042922 -8.3539319088162279e-06 
0.22916666666666666 0.010416666666666666 0.0000000000000000 -4.0608378318362526e-06 -8.2340073732268335e-06 0.82402502259314359 2.4137475403690415e-07 -3.5795936896931418e-08 0.22916666666666666 0.010416666666666666 0.22916260582883483 0.010408432659293440 
0.23958333333333334 0.0000000000000000 0.0000000000000000 -4.4515756686285968e-06 -8.6315991311741508e-06 0.79289582627107358 2.3046203960667668e-07 0.0000000000000000 0.23958333333333334 0.0000000000000000 0.23957888175766470 -8.6315991311741508e-06 
0.23958333333333334 0.010416666666666666 0.0000000000000000 -4.1792164391324816e-06 -8.5151844349903453e-06 0.79926027229318641 2.3446305310133921e-07 -3.0877959216723415e-08 0.23958333333333334 0.010416666666666666 0.23957915411689421 0.010408151482231676 
0.25000000000000000 0.0000000000000000 0.0000000000000000 -4.5662113387978795e-06 -8.9088862951856005e-06 0.76913096000020165 2.2512210033375424e-07 0.0000000000000000 0.25000000000000000 0.0000000000000000 0.24999543378866121 -8.9088862951856005e-06 
0.25000000000000000 0.010416666666666666 0.0000000000000000 -4.2940993236357121e-06 -8.7959025945057801e-06 0.77517275224426863 2.2833175397262410e-07 -2.6863233776876969e-08 0.25000000000000000 0.010416666666666666 0.24999570590067635 0.010407870764072161 
0.26041666666666669 0.0000000000000000 0.0000000000000000 -4.6775123516517827e-06 -9.1858922487556358e-06 0.74591801471188146 2.2030910457776631e-07 0.0000000000000000 0.26041666666666669 0.0000000000000000 0.26041198915431502 -9.1858922487556358e-06 
0.26041666666666669 0.010416666666666666 0.0000000000000000 -4.4055658044019094e-06 -9.0762685206471043e-06 0.75168906044926020 2.2283930675254785e-07 -2.3624016022595364e-08 0.26041666666666669 0.010416666666666666 0.26041226110086230 0.010407590398146019 
0.27083333333333331 0.0000000000000000 0.0000000000000000 -4.7855329301926839e-06 -9.4626956185146589e-06 0.72320444938514117 2.1592711910842745e-07 0.0000000000000000 0.27083333333333331 0.0000000000000000 0.27082854780040311 -9.4626956185146589e-06 
0.27083333333333331 0.010416666666666666 0.0000000000000000 -4.5136874963157375e-06 -9.3563672256859729e-06 0.72874898605301397 2.1787137935454685e-07 -2.1053240709551238e-08 0.27083333333333331 0.010416666666666666 0.27082881964583699 0.010407310299440980 
0.28125000000000000 0.0000000000000000 0.0000000000000000 -4.8903233590920718e-06 -9.7393576642213458e-06 0.70094716720087957 2.1189784957493649e-07 0.0000000000000000 0.28125000000000000 0.0000000000000000 0.28124510967664090 -9.7393576642213458e-06 
0.28125000000000000 0.010416666666666666 0.0000000000000000 -4.6185297062811191e-06 -9.6362651837063662e-06 0.70630302128761480 2.1333488644513448e-07 -1.9060554287211811e-08 0.28125000000000000 0.010416666666666666 0.28124538147029371 0.010407030401482957 
0.29166666666666669 0.0000000000000000 0.0000000000000000 -4.9919307606823005e-06 -1.0015924669919407e-05 0.67911080588947648 2.0815695785433689e-07 0.0000000000000000 0.29166666666666669 0.0000000000000000 0.29166167473590598 -1.0015924669919407e-05 
0.29166666666666669 0.010416666666666666 0.0000000000000000 -4.7201525762125401e-06 -9.9160129307372572e-06 0.68431040826437251 2.0915349791814094e-07 -1.7569215985893413e-08 0.29166666666666669 0.010416666666666666 0.29166194651409055 0.010406750653735931 
0.30208333333333331 0.0000000000000000 0.0000000000000000 -5.0903997375166314e-06 -1.0292429961527601e-05 0.65766637909303838 2.0465124963926696e-07 0.0000000000000000 0.30208333333333331 0.0000000000000000 0.30207824293359581 -1.0292429961527601e-05 
0.30208333333333331 0.010416666666666666 0.0000000000000000 -4.8186120247005466e-06 -1.0195647249245612e-05 0.66273759064168258 2.0526422005622399e-07 -1.6513655047926104e-08 0.30208333333333331 0.010416666666666666 0.30207851472130859 0.010406471019417421 
0.31250000000000000 0.0000000000000000 0.0000000000000000 -5.1857729070626868e-06 -1.0568895620695123e-05 0.63659018721048977 2.0133650336153857e-07 0.0000000000000000 0.31250000000000000 0.0000000000000000 0.31249481422709291 -1.0568895620695123e-05 
0.31250000000000000 0.010416666666666666 0.0000000000000000 -4.9139605272593568e-06 -1.0475193016395925e-05 0.64155697530122169 2.0161476482876775e-07 -1.5837528901024741e-08 0.31250000000000000 0.010416666666666666 0.31249508603947268 0.010406191473650269 
0.32291666666666669 0.0000000000000000 0.0000000000000000 -5.2780913485522399e-06 -1.0845333949804810e-05 0.61586293727761221 1.9817577749375782e-07 0.0000000000000000 0.32291666666666669 0.0000000000000000 0.32291138857531815 -1.0845333949804810e-05 
0.32291666666666669 0.010416666666666666 0.0000000000000000 -5.0062477661492848e-06 -1.0754664778110707e-05 0.62074593388765631 1.9816150529883270e-07 -1.5492167488687597e-08 0.32291666666666669 0.010416666666666666 0.32291166041890046 0.010405912001888555 
0.33333333333333331 0.0000000000000000 0.0000000000000000 -5.3673949778088101e-06 -1.1121748731629088e-05 0.59546902654831746 1.9513807858553479e-07 0.0000000000000000 0.33333333333333331 0.0000000000000000 0.33332796593835551 -1.1121748731629088e-05 
0.33333333333333331 0.010416666666666666 0.0000000000000000 -5.0955211740588642e-06 -1.1034068097834885e-05 0.60028599173690145 1.9486787174976517e-07 -1.5435317912480183e-08 0.33333333333333331 0.010416666666666666 0.33332823781215920 0.010405632598568831 
0.34375000000000000 0.0000000000000000 0.0000000000000000 -5.4537228626602335e-06 -1.1398136318401210e-05 0.57539595542144040 1.9219730405656484e-07 0.0000000000000000 0.34375000000000000 0.0000000000000000 0.34374454627713735 -1.1398136318401210e-05 
0.34375000000000000 0.010416666666666666 0.0000000000000000 -5.1818263908376990e-06 -1.1313400718880773e-05 0.58016216451625113 1.9170308255897984e-07 -1.5630124497729002e-08 0.34375000000000000 0.010416666666666666 0.34374481817360913 0.010405353265947785 
0.35416666666666669 0.0000000000000000 0.0000000000000000 -5.5371134890636444e-06 -1.1674486578287968e-05 0.55563384342385247 1.8933139621881087e-07 0.0000000000000000 0.35416666666666669 0.0000000000000000 0.35416112955317763 -1.1674486578287968e-05 
0.35416666666666669 0.010416666666666666 0.0000000000000000 -5.2652076485687536e-06 -1.1592653571502987e-05 0.56036241228104000 1.8864113176272130e-07 -1.6044294790120472e-08 0.35416666666666669 0.010416666666666666 0.35416140145901814 0.010405074013095162 
0.36458333333333331 0.0000000000000000 0.0000000000000000 -5.6176049861416894e-06 -1.1950783721955450e-05 0.53617502795331484 1.8652166006650166e-07 0.0000000000000000 0.36458333333333331 0.0000000000000000 0.36457771572834718 -1.1950783721955450e-05 
0.36458333333333331 0.010416666666666666 0.0000000000000000 -5.3457080972543169e-06 -1.1871811649848028e-05 0.54087718760510128 1.8565997514611088e-07 -1.6649413386026830e-08 0.36458333333333331 0.010416666666666666 0.36457798762523602 0.010404794855016818 
0.37500000000000000 0.0000000000000000 0.0000000000000000 -5.6952353168174401e-06 -1.2227007027750752e-05 0.51701372997917749 1.8375220909639789e-07 0.0000000000000000 0.37500000000000000 0.0000000000000000 0.37499430476468315 -1.2227007027750752e-05 
0.37500000000000000 0.010416666666666666 0.0000000000000000 -5.4233700810426708e-06 -1.2150854779218570e-05 0.52169905964697694 1.8274087116110388e-07 -1.7420374043348618e-08 0.37500000000000000 0.010416666666666666 0.37499457662991897 0.010404515811887447 
0.38541666666666669 0.0000000000000000 0.0000000000000000 -5.7700424395423824e-06 -1.2503131480717366e-05 0.49814577430116164 1.8100951196452325e-07 0.0000000000000000 0.38541666666666669 0.0000000000000000 0.38541089662422712 -1.2503131480717366e-05 
0.38541666666666669 0.010416666666666666 0.0000000000000000 -5.4982353730811394e-06 -1.2429758290380107e-05 0.50282239994540412 1.7986784351675190e-07 -1.8334906985443966e-08 0.38541666666666669 0.010416666666666666 0.38541116843129358 0.010404236908376286 
0.39583333333333331 0.0000000000000000 0.0000000000000000 -5.8420644456632616e-06 -1.2779128338026132e-05 0.47956835456322294 1.7828201916002678e-07 0.0000000000000000 0.39583333333333331 0.0000000000000000 0.39582749126888767 -1.2779128338026132e-05 
0.39583333333333331 0.010416666666666666 0.0000000000000000 -5.5703453756260529e-06 -1.2708493614689538e-05 0.48424311873329157 1.7702724009422618e-07 -1.9373183217497576e-08 0.39583333333333331 0.010416666666666666 0.39582776298795769 0.010403958173051979 
0.40625000000000000 0.0000000000000000 0.0000000000000000 -5.9113396762142028e-06 -1.3054965631286841e-05 0.46127983521683763 1.7555985361576745e-07 0.0000000000000000 0.40625000000000000 0.0000000000000000 0.40624408866032380 -1.3054965631286841e-05 
0.40625000000000000 0.010416666666666666 0.0000000000000000 -5.6397412908822670e-06 -1.2987028811467434e-05 0.46595844285997329 1.7420736865627264e-07 -2.0517481476231257e-08 0.40625000000000000 0.010416666666666666 0.40624436025870914 0.010403679637855198 
0.41666666666666669 0.0000000000000000 0.0000000000000000 -5.9779068213084378e-06 -1.3330608614497634e-05 0.44327958417566921 1.7283455274329800e-07 0.0000000000000000 0.41666666666666669 0.0000000000000000 0.41666068875984535 -1.3330608614497634e-05 
0.41666666666666669 0.010416666666666666 0.0000000000000000 -5.7064642671172662e-06 -1.3265329037140556e-05 0.44796672819082994 1.7139819419540632e-07 -2.1751906332221805e-08 0.41666666666666669 0.010416666666666666 0.41666096020239957 0.010403401337629526 
0.42708333333333331 0.0000000000000000 0.0000000000000000 -6.0418050048073624e-06 -1.3606020165004288e-05 0.42556783111039626 1.7009885213921393e-07 0.0000000000000000 0.42708333333333331 0.0000000000000000 0.42707729152832852 -1.3606020165004288e-05 
0.42708333333333331 0.010416666666666666 0.0000000000000000 -5.7705555238467390e-06 -1.3543356964149402e-05 0.43026730073980773 1.6859108608716639e-07 -2.3062148265280084e-08 0.42708333333333331 0.010416666666666666 0.42707756277780945 0.010403123309702516 
0.43750000000000000 0.0000000000000000 0.0000000000000000 -6.1030738565390451e-06 -1.3881161143712182e-05 0.40814554727985969 1.6734650323253269e-07 0.0000000000000000 0.43750000000000000 0.0000000000000000 0.43749389692614349 -1.3881161143712182e-05 
0.43750000000000000 0.010416666666666666 0.0000000000000000 -5.8320564592815336e-06 -1.3821073156371108e-05 0.41286032187632249 1.6577860574372795e-07 -2.4435278308029466e-08 0.43750000000000000 0.010416666666666666 0.43749416794354073 0.010402845593510296 
0.44791666666666669 0.0000000000000000 0.0000000000000000 -6.1617535740047717e-06 -1.4155990719869340e-05 0.39101434354308323 1.6457211879674956e-07 0.0000000000000000 0.44791666666666669 0.0000000000000000 0.44791050491309270 -1.4155990719869340e-05 
0.44791666666666669 0.010416666666666666 0.0000000000000000 -5.8910087427298550e-06 -1.4098436406792337e-05 0.39574667380529266 1.6295432740857710e-07 -2.5859571258743509e-08 0.44791666666666669 0.010416666666666666 0.44791077565792398 0.010402568230259875 
0.45833333333333331 0.0000000000000000 0.0000000000000000 -6.2178849752361507e-06 -1.4430466664980158e-05 0.37417638378998119 1.6177104147742487e-07 0.0000000000000000 0.45833333333333331 0.0000000000000000 0.45832711544835808 -1.4430466664980158e-05 
0.45833333333333331 0.010416666666666666 0.0000000000000000 -5.9474543942409518e-06 -1.4375404042335155e-05 0.37892786219790869 1.6011268626006643e-07 -2.7324352580858366e-08 0.45833333333333331 0.010416666666666666 0.45832738587893912 0.010402291262624331 
0.46875000000000000 0.0000000000000000 0.0000000000000000 -6.2715095442352777e-06 -1.4704545619783331e-05 0.35763431150259822 1.5893923143704426e-07 0.0000000000000000 0.46875000000000000 0.0000000000000000 0.46874372849045570 -1.4704545619783331e-05 
0.46875000000000000 0.010416666666666666 0.0000000000000000 -6.0014358534393164e-06 -1.4651932200054983e-05 0.36240593339221966 1.5724884914338832e-07 -2.8819865000309180e-08 0.46875000000000000 0.010416666666666666 0.46874399856414656 0.010402014734466612 
0.47916666666666669 0.0000000000000000 0.0000000000000000 -6.3226694702373023e-06 -1.4978183337709546e-05 0.34139118753808750 1.5607317003247607e-07 0.0000000000000000 0.47916666666666669 0.0000000000000000 0.47916034399719648 -1.4978183337709546e-05 
0.47916666666666669 0.010416666666666666 0.0000000000000000 -6.0529960392175274e-06 -1.4927976078364994e-05 0.34618340401593795 1.5435860420043076e-07 -3.0337151510163061e-08 0.47916666666666669 0.010416666666666666 0.47916061367062746 0.010401738690588301 
0.48958333333333331 0.0000000000000000 0.0000000000000000 -6.3714076818715663e-06 -1.5251334907806310e-05 0.32545043752968456 1.5316977699069015e-07 0.0000000000000000 0.48958333333333331 0.0000000000000000 0.48957696192565142 -1.5251334907806310e-05 
0.48958333333333331 0.010416666666666666 0.0000000000000000 -6.1021784017204029e-06 -1.5203490166475556e-05 0.33026320123179759 1.5143826638345856e-07 -3.1867952078489047e-08 0.48958333333333331 0.010416666666666666 0.48957723115493151 0.010401463176500191 
0.50000000000000000 0.0000000000000000 0.0000000000000000 -6.4177678771583706e-06 -1.5523954959761018e-05 0.30981580754856503 1.5022633906720804e-07 0.0000000000000000 0.50000000000000000 0.0000000000000000 0.49999358223212287 -1.5523954959761018e-05 
0.50000000000000000 0.010416666666666666 0.0000000000000000 -6.1490269678542505e-06 -1.5478428454850713e-05 0.31464861208689038 1.4848459641427904e-07 -3.3404611800035998e-08 0.50000000000000000 0.010416666666666666 0.49999385097303223 0.010401188238211815 
0.51041666666666663 0.0000000000000000 0.0000000000000000 -6.4617945501589064e-06 -1.5795997853357381e-05 0.29449132686784324 1.4724044855690611e-07 0.0000000000000000 0.51041666666666663 0.0000000000000000 0.51041020487211652 -1.5795997853357381e-05 
0.51041666666666663 0.010416666666666666 0.0000000000000000 -6.1935863813858514e-06 -1.5752744629163110e-05 0.29934324067393364 1.4549473123851219e-07 -3.4939998616563124e-08 0.51041666666666663 0.010416666666666666 0.51041047308028531 0.010400913922037501 
0.52083333333333337 0.0000000000000000 0.0000000000000000 -6.5035330149923857e-06 -1.6067417854455481e-05 0.27948127683123664 1.4420995030745223e-07 0.0000000000000000 0.52083333333333337 0.0000000000000000 0.52082682980031836 -1.6067417854455481e-05 
0.52083333333333337 0.010416666666666666 0.0000000000000000 -6.2359019385505773e-06 -1.6026392249963950e-05 0.28435097199587883 1.4246612437465024e-07 -3.6467429031738106e-08 0.52083333333333337 0.010416666666666666 0.52082709743139477 0.010400640274416702 
0.53125000000000000 0.0000000000000000 0.0000000000000000 -6.5430294278435906e-06 -1.6338169299381302e-05 0.26479016495847113 1.4113289619773173e-07 0.0000000000000000 0.53125000000000000 0.0000000000000000 0.53124345697057218 -1.6338169299381302e-05 
0.53125000000000000 0.010416666666666666 0.0000000000000000 -6.2760196199633313e-06 -1.6299324920064149e-05 0.26967594157362546 1.3939649488178393e-07 -3.7980600481567009e-08 0.53125000000000000 0.010416666666666666 0.53124372398038000 0.010400367341746602 
0.54166666666666663 0.0000000000000000 0.0000000000000000 -6.5803308075038270e-06 -1.6608206749444178e-05 0.25042270352343027 1.3800750620634830e-07 0.0000000000000000 0.54166666666666663 0.0000000000000000 0.54166008633585916 -1.6608206749444178e-05 
0.54166666666666663 0.010416666666666666 0.0000000000000000 -6.3139861195160728e-06 -1.6571496441442328e-05 0.25532250995557698 1.3628378392118183e-07 -3.9473529244637599e-08 0.54166666666666663 0.010416666666666666 0.54166035268054713 0.010400095170225223 
0.55208333333333337 0.0000000000000000 0.0000000000000000 -6.6154850549162091e-06 -1.6877485137161619e-05 0.23638379192463890 1.3483213538663778e-07 0.0000000000000000 0.55208333333333337 0.0000000000000000 0.55207671784827850 -1.6877485137161619e-05 
0.55208333333333337 0.010416666666666666 0.0000000000000000 -6.3498488708482207e-06 -1.6842860963346151e-05 0.24129524138333927 1.3312611808900596e-07 -4.0940492919734109e-08 0.55208333333333337 0.010416666666666666 0.55207698348446244 0.010399823805703321 
0.56250000000000000 0.0000000000000000 0.0000000000000000 -6.6485409721307098e-06 -1.7145959905659278e-05 0.22267850223171312 1.3160524625588313e-07 0.0000000000000000 0.56250000000000000 0.0000000000000000 0.56249335145902790 -1.7145959905659278e-05 
0.56250000000000000 0.010416666666666666 0.0000000000000000 -6.3836560718890568e-06 -1.7113373123133539e-05 0.22759888594306002 1.2992177888257033e-07 -4.2375976638693144e-08 0.56250000000000000 0.010416666666666666 0.56249361634392814 0.010399553293543530 
0.57291666666666663 0.0000000000000000 0.0000000000000000 -6.6795482810137824e-06 -1.7413587142623116e-05 0.20931206734098493 1.2832538616343829e-07 0.0000000000000000 0.57291666666666663 0.0000000000000000 0.57290998711838559 -1.7413587142623116e-05 
0.57291666666666663 0.010416666666666666 0.0000000000000000 -6.4154567078916712e-06 -1.7382988181303638e-05 0.21423836458931719 1.2666917783249073e-07 -4.3774622312129264e-08 0.57291666666666663 0.010416666666666666 0.57291025120995875 0.010399283678485362 
0.58333333333333337 0.0000000000000000 0.0000000000000000 -6.7085576420004607e-06 -1.7680323710110424e-05 0.19628987120915894 1.2499116940413910e-07 0.0000000000000000 0.58333333333333337 0.0000000000000000 0.58332662477569142 -1.7680323710110424e-05 
0.58333333333333337 0.010416666666666666 0.0000000000000000 -6.4453005733044501e-06 -1.7651662152092431e-05 0.20121875647176793 1.2336683692585109e-07 -4.5131180250938540e-08 0.58333333333333337 0.010416666666666666 0.58332688803276012 0.010399015004514574 
0.59375000000000000 0.0000000000000000 0.0000000000000000 -6.7356206731220272e-06 -1.7946127371472934e-05 0.18361744065583183 1.2160126389607865e-07 0.0000000000000000 0.59375000000000000 0.0000000000000000 0.59374326437932690 -1.7946127371472934e-05 
0.59375000000000000 0.010416666666666666 0.0000000000000000 -6.4732382927565975e-06 -1.7919351930951638e-05 0.18854528802341328 1.2001337414290998e-07 -4.6440462648423811e-08 0.59375000000000000 0.010416666666666666 0.59374352676170716 0.010398747314735715 
0.60416666666666663 0.0000000000000000 0.0000000000000000 -6.7607899694886957e-06 -1.8210956916607449e-05 0.17130043823773503 1.1815438236121689e-07 0.0000000000000000 0.60416666666666663 0.0000000000000000 0.60415990587669710 -1.8210956916607449e-05 