# For a description of the Tecplot format see the Tecplot User's guide.
#
Variables=x,y,z,s_u,s_v,s_p,x,y,ref_u,ref_v,u,v
Zone f=fepoint, n=289, e=512, et=quadrilateral, c=black
0.00000 0.00000 0.00000 0.0000000000000000 0.0000000000000000 1.8944019952454751 0.0000000000000000 0.0000000000000000 0.0000000000000000 0.0000000000000000 0.0000000000000000 0.0000000000000000 
0.062500000000000000 0.0000000000000000 0.0000000000000000 -1.5596985460004287e-06 -3.2393034892858426e-06 1.5250602100091086 1.3434660583241456e-06 0.0000000000000000 0.062500000000000000 0.0000000000000000 0.062498440301453996 -3.2393034892858426e-06 
0.062500000000000000 0.062500000000000000 0.0000000000000000 -3.7016456248784694e-07 -2.0498509740931189e-06 1.5663560128433751 7.8183611727343432e-07 3.7119783856050222e-07 0.062500000000000000 0.062500000000000000 0.062499629835437505 0.062497950149025906 
0.0000000000000000 0.062500000000000000 0.0000000000000000 0.0000000000000000 0.0000000000000000 1.6431171136059388 0.0000000000000000 1.0605641921491972e-06 0.0000000000000000 0.062500000000000000 0.0000000000000000 0.062500000000000000 
0.12500000000000000 0.0000000000000000 0.0000000000000000 -2.6156550911151165e-06 -5.1419812714825297e-06 1.1087485136285329 4.5885171261638913e-07 0.0000000000000000 0.12500000000000000 0.0000000000000000 0.12499738434490888 -5.1419812714825297e-06 
0.12500000000000000 0.062500000000000000 0.0000000000000000 -1.3085799013464021e-06 -4.2053342692881105e-06 1.1885459987903813 4.6823596365802473e-07 -1.5708083867417753e-07 0.12500000000000000 0.062500000000000000 0.12499869142009866 0.062495794665730721 
0.18750000000000000 0.0000000000000000 0.0000000000000000 -3.4588499944016085e-06 -6.8032682658026240e-06 0.86234750584397946 3.2083361408948170e-07 0.0000000000000000 0.18750000000000000 0.0000000000000000 0.18749654115000561 -6.8032682658026240e-06 
0.18750000000000000 0.062500000000000000 0.0000000000000000 -2.1082042584144875e-06 -6.0425585406707835e-06 0.91279577503221176 3.5584595757175142e-07 -3.3787862211738603e-08 0.18750000000000000 0.062500000000000000 0.18749789179574158 0.062493957441459337 
0.25000000000000000 0.0000000000000000 0.0000000000000000 -4.1560610598115764e-06 -8.3997177347424976e-06 0.69483691541789894 2.3695483836333623e-07 0.0000000000000000 0.25000000000000000 0.0000000000000000 0.24999584393894017 -8.3997177347424976e-06 
0.25000000000000000 0.062500000000000000 0.0000000000000000 -2.7804550983650012e-06 -7.7724596060804477e-06 0.72861957821286627 2.4124371758520950e-07 -2.0776927384383225e-08 0.25000000000000000 0.062500000000000000 0.24999721954490164 0.062492227540393915 
0.31250000000000000 0.0000000000000000 0.0000000000000000 -4.7327689223168491e-06 -9.9771085390008965e-06 0.56512152726716447 1.9532352096491901e-07 0.0000000000000000 0.31250000000000000 0.0000000000000000 0.31249526723107768 -9.9771085390008965e-06 
0.31250000000000000 0.062500000000000000 0.0000000000000000 -3.3406755058934080e-06 -9.4611062927711831e-06 0.59217290317599491 1.9310355142326551e-07 -1.3131782562283055e-08 0.31250000000000000 0.062500000000000000 0.31249665932449405 0.062490538893707238 
0.37500000000000000 0.0000000000000000 0.0000000000000000 -5.2027381673735655e-06 -1.1546250004560964e-05 0.45656345352514349 1.6987997637032273e-07 0.0000000000000000 0.37500000000000000 0.0000000000000000 0.37499479726183260 -1.1546250004560964e-05 
0.37500000000000000 0.062500000000000000 0.0000000000000000 -3.8012434725603630e-06 -1.1127612348679152e-05 0.48171118451099210 1.6213424164572852e-07 -1.7707226518176207e-08 0.37500000000000000 0.062500000000000000 0.37499619875652751 0.062488872387651322 
0.43750000000000000 0.0000000000000000 0.0000000000000000 -5.5761493256602689e-06 -1.3105399198293466e-05 0.36246051814426200 1.5000163346953258e-07 0.0000000000000000 0.43750000000000000 0.0000000000000000 0.43749442385067433 -1.3105399198293466e-05 
0.43750000000000000 0.062500000000000000 0.0000000000000000 -4.1726571732815600e-06 -1.2773479239115927e-05 0.38770568088862317 1.4002978590343865e-07 -2.6379752926453277e-08 0.43750000000000000 0.062500000000000000 0.43749582734282672 0.062487226520760886 
0.50000000000000000 0.0000000000000000 0.0000000000000000 -5.8623534960080416e-06 -1.4647896105439495e-05 0.28023621648350844 1.3190894080364955e-07 0.0000000000000000 0.50000000000000000 0.0000000000000000 0.49999413764650397 -1.4647896105439495e-05 
0.50000000000000000 0.062500000000000000 0.0000000000000000 -4.4644462219931756e-06 -1.4393154782942838e-05 0.30614823342641856 1.2160076341140472e-07 -3.6175131554735638e-08 0.50000000000000000 0.062500000000000000 0.49999553555377801 0.062485606845217055 
0.56250000000000000 0.0000000000000000 0.0000000000000000 -6.0709212927990455e-06 -1.6165426152909400e-05 0.20903586212621317 1.1394599790126231e-07 0.0000000000000000 0.56250000000000000 0.0000000000000000 0.56249392907870721 -1.6165426152909400e-05 
0.56250000000000000 0.062500000000000000 0.0000000000000000 -4.6857559949950133e-06 -1.5978508565526834e-05 0.23541655797175332 1.0461339176417736e-07 -4.5181584599727709e-08 0.56250000000000000 0.062500000000000000 0.56249531424400512 0.062484021491434470 
0.62500000000000000 0.0000000000000000 0.0000000000000000 -6.2120853137644368e-06 -1.7649712881230616e-05 0.14870348059796626 9.5424115433118679e-08 0.0000000000000000 0.62500000000000000 0.0000000000000000 0.62499378791468618 -1.7649712881230616e-05 
0.62500000000000000 0.062500000000000000 0.0000000000000000 -4.8456961498095013e-06 -1.7521034428400506e-05 0.17488865568941359 8.8182382254155926e-08 -5.2114655608013762e-08 0.62500000000000000 0.062500000000000000 0.62499515430385022 0.062482478965571596 
0.68750000000000000 0.0000000000000000 0.0000000000000000 -6.2969662144479242e-06 -1.9093612752101844e-05 0.099304439697263200 7.6318747822605250e-08 0.0000000000000000 0.68750000000000000 0.0000000000000000 0.68749370303378543 -1.9093612752101844e-05 
0.68750000000000000 0.062500000000000000 0.0000000000000000 -4.9535547730711766e-06 -1.9013159109319076e-05 0.12429752767809561 7.2157389229972354e-08 -5.5913324307056759e-08 0.68750000000000000 0.062500000000000000 0.68749504644522696 0.062480986840890672 
0.75000000000000000 0.0000000000000000 0.0000000000000000 -6.3377170762310011e-06 -2.0492065104478523e-05 0.060849226125849427 5.6366030243650853e-08 0.0000000000000000 0.75000000000000000 0.0000000000000000 0.74999366228292386 -2.0492065104478523e-05 
0.75000000000000000 0.062500000000000000 0.0000000000000000 -5.0189486792378524e-06 -2.0449283208417049e-05 0.083391244721732830 5.6534831926201244e-08 -5.5611412416053312e-08 0.75000000000000000 0.062500000000000000 0.74999498105132079 0.062479550716791586 
0.81250000000000000 0.0000000000000000 0.0000000000000000 -6.3475866096906453e-06 -2.1843181194587767e-05 0.033095437794321246 3.7570398608616896e-08 0.0000000000000000 0.81250000000000000 0.0000000000000000 0.81249365241339033 -2.1843181194587767e-05 
0.81250000000000000 0.062500000000000000 0.0000000000000000 -5.0519555614172850e-06 -2.1826923414925709e-05 0.051742386279766989 4.2668007297094716e-08 -5.0216997343322082e-08 0.81250000000000000 0.062500000000000000 0.81249494804443856 0.062478173076585077 
0.87500000000000000 0.0000000000000000 0.0000000000000000 -6.3407442984485671e-06 -2.3149645948123212e-05 0.015342949317912769 1.7133427285378604e-08 0.0000000000000000 0.87500000000000000 0.0000000000000000 0.87499365925570161 -2.3149645948123212e-05 
0.87500000000000000 0.062500000000000000 0.0000000000000000 -5.0632390444713203e-06 -2.3148225631326586e-05 0.028672921818773140 2.8188160379166003e-08 -3.9217380137514312e-08 0.87500000000000000 0.062500000000000000 0.87499493676095563 0.062476851774368673 
0.93750000000000000 0.0000000000000000 0.0000000000000000 -6.3313543684331249e-06 -2.4420244877835271e-05 0.0061829903039868879 5.6940191936703758e-09 0.0000000000000000 0.93750000000000000 0.0000000000000000 0.93749366864563155 -2.4420244877835271e-05 
0.93750000000000000 0.062500000000000000 0.0000000000000000 -5.0641057463878596e-06 -2.4422035008072458e-05 0.013403299022084840 2.3568850272279905e-08 -2.3338057709175329e-08 0.93750000000000000 0.062500000000000000 0.93749493589425359 0.062475577964991931 
1.0000000000000000 0.0000000000000000 0.0000000000000000 -6.3292983612762437e-06 -2.5668237273035301e-05 0.0028697183618381552 0.0000000000000000 0.0000000000000000 1.0000000000000000 0.0000000000000000 0.99999367070163869 -2.5668237273035301e-05 
1.0000000000000000 0.062500000000000000 0.0000000000000000 -5.0659438514565889e-06 -2.5666216424242891e-05 0.0062035106066639437 0.0000000000000000 -5.8743802988014085e-09 1.0000000000000000 0.062500000000000000 0.99999493405614859 0.062474333783575760 
0.062500000000000000 0.12500000000000000 0.0000000000000000 -1.6610318610773613e-07 -1.6054794635975318e-06 1.2906239842468903 9.9891838473268145e-08 4.5714337502751935e-07 0.062500000000000000 0.12500000000000000 0.062499833896813899 0.12499839452053640 
0.0000000000000000 0.12500000000000000 0.0000000000000000 0.0000000000000000 0.0000000000000000 1.2575817278047150 0.0000000000000000 6.0485724426340463e-07 0.0000000000000000 0.12500000000000000 0.0000000000000000 0.12500000000000000 
0.12500000000000000 0.12500000000000000 0.0000000000000000 -6.0412191565839643e-07 -3.4472260752840619e-06 1.1210014996103899 3.8671357240854918e-07 2.6662120834420923e-07 0.12500000000000000 0.12500000000000000 0.12499939587808435 0.12499655277392473 
0.18750000000000000 0.12500000000000000 0.0000000000000000 -1.2113017684151262e-06 -5.3599453299867897e-06 0.89397876077126226 3.4398645262657753e-07 9.7144261927468460e-08 0.18750000000000000 0.12500000000000000 0.18749878869823158 0.12499464005466999 
0.25000000000000000 0.12500000000000000 0.0000000000000000 -1.7742875401379940e-06 -7.1912932540206214e-06 0.71577099120330256 2.3351857705132325e-07 5.4862222561596254e-08 0.25000000000000000 0.12500000000000000 0.24999822571245986 0.12499280870674599 
0.31250000000000000 0.12500000000000000 0.0000000000000000 -2.2625614811699124e-06 -8.9759324918772527e-06 0.58322904426416089 1.8414915360499253e-07 4.0244689302865800e-08 0.31250000000000000 0.12500000000000000 0.31249773743851877 0.12499102406750810 
0.37500000000000000 0.12500000000000000 0.0000000000000000 -2.6725380086545316e-06 -1.0729638953448709e-05 0.47876936279870974 1.4983618167767876e-07 2.3632755733443138e-08 0.37500000000000000 0.12500000000000000 0.37499732746199133 0.12498927036104655 
0.43750000000000000 0.12500000000000000 0.0000000000000000 -3.0078559838879168e-06 -1.2454041517251379e-05 0.39190272749323546 1.2776049200886572e-07 8.0619544973898912e-09 0.43750000000000000 0.12500000000000000 0.43749699214401611 0.12498754595848273 
0.50000000000000000 0.12500000000000000 0.0000000000000000 -3.2744749642979087e-06 -1.4143943815297026e-05 0.31751812946596830 1.1045888405185630e-07 -6.7403520611924064e-09 0.50000000000000000 0.12500000000000000 0.49999672552503577 0.12498585605618472 
0.56250000000000000 0.12500000000000000 0.0000000000000000 -3.4791668232094379e-06 -1.5791401166066293e-05 0.25321200092407958 9.5542030332695549e-08 -1.9780166900244446e-08 0.56250000000000000 0.12500000000000000 0.56249652083317681 0.12498420859883395 
0.62500000000000000 0.12500000000000000 0.0000000000000000 -3.6290207196417301e-06 -1.7387923864979966e-05 0.19779650569278265 8.1900694703547262e-08 -3.0389727126607171e-08 0.62500000000000000 0.12500000000000000 0.62499637097928040 0.12498261207613502 
0.68750000000000000 0.12500000000000000 0.0000000000000000 -3.7313244402892858e-06 -1.8925800740505640e-05 0.15053547478493387 6.9348426334905515e-08 -3.7937266121911225e-08 0.68750000000000000 0.12500000000000000 0.68749626867555957 0.12498107419925951 
0.75000000000000000 0.12500000000000000 0.0000000000000000 -3.7936448757840173e-06 -2.0399098730623343e-05 0.11074495529649658 5.7773929322336891e-08 -4.1865483487191140e-08 0.75000000000000000 0.12500000000000000 0.74999620635512432 0.12497960090126937 
0.81250000000000000 0.12500000000000000 0.0000000000000000 -3.8240955149524657e-06 -2.1804680425613341e-05 0.077616588248941715 4.8651566042582105e-08 -4.1499782052260362e-08 0.81250000000000000 0.12500000000000000 0.81249617590448509 0.12497819531957437 
0.87500000000000000 0.12500000000000000 0.0000000000000000 -3.8318420269533933e-06 -2.3143493916389479e-05 0.050283890232571536 3.8047350647629429e-08 -3.6884263469299249e-08 0.87500000000000000 0.12500000000000000 0.87499616815797310 0.12497685650608360 
0.93750000000000000 0.12500000000000000 0.0000000000000000 -3.8279288344398731e-06 -2.4422393362583799e-05 0.028507449619329734 3.8629113197813627e-08 -2.7261946908731835e-08 0.93750000000000000 0.12500000000000000 0.93749617207116553 0.12497557760663743 
1.0000000000000000 0.12500000000000000 0.0000000000000000 -3.8264098822423238e-06 -2.5657027904315826e-05 0.015355383895817540 0.0000000000000000 -1.7694815214999979e-08 1.0000000000000000 0.12500000000000000 0.99999617359011772 0.12497434297209568 
0.062500000000000000 0.18750000000000000 0.0000000000000000 -8.8150065001593033e-08 -1.3820153112312548e-06 1.0055901708426698 2.3850426736096141e-08 4.1416493498112017e-07 0.062500000000000000 0.18750000000000000 0.062499911849934996 0.18749861798468878 
0.0000000000000000 0.18750000000000000 0.0000000000000000 0.0000000000000000 0.0000000000000000 0.95233392106858439 0.0000000000000000 4.7036804858883079e-07 0.0000000000000000 0.18750000000000000 0.0000000000000000 0.18750000000000000 
0.12500000000000000 0.18750000000000000 0.0000000000000000 -3.1654246532685942e-07 -3.0372168859762021e-06 0.93923752879154876 1.8663102788235681e-07 3.2721593596817593e-07 0.12500000000000000 0.18750000000000000 0.12499968345753466 0.18749696278311404 
0.18750000000000000 0.18750000000000000 0.0000000000000000 -6.6507982654345229e-07 -4.8525108438954377e-06 0.80966289573577177 2.3111960740079566e-07 1.7895419948185688e-07 0.18750000000000000 0.18750000000000000 0.18749933492017345 0.18749514748915611 
0.25000000000000000 0.18750000000000000 0.0000000000000000 -1.0687103471885675e-06 -6.7179460738078579e-06 0.66972908437831491 2.0466077049870581e-07 9.7235039737550821e-08 0.25000000000000000 0.18750000000000000 0.24999893128965281 0.18749328205392615 
0.31250000000000000 0.18750000000000000 0.0000000000000000 -1.4470432675860081e-06 -8.5657348589428468e-06 0.55345771672943367 1.6344879057831183e-07 6.3397411712553739e-08 0.31250000000000000 0.18750000000000000 0.31249855295673240 0.18749143426514106 
0.37500000000000000 0.18750000000000000 0.0000000000000000 -1.7755885911555309e-06 -1.0387176652481552e-05 0.46053294325593930 1.3167711859165344e-07 3.9828608255104843e-08 0.37500000000000000 0.18750000000000000 0.37499822441140879 0.18748961282334753 
0.43750000000000000 0.18750000000000000 0.0000000000000000 -2.0480089640310260e-06 -1.2176795727321355e-05 0.38413574449563842 1.1081396918011119e-07 2.0783403783325135e-08 0.43750000000000000 0.18750000000000000 0.43749795199103597 0.18748782320427268 
0.50000000000000000 0.18750000000000000 0.0000000000000000 -2.2649193144176526e-06 -1.3927012409367905e-05 0.31945539290469532 9.4947903110276440e-08 3.4683174762796256e-09 0.50000000000000000 0.18750000000000000 0.49999773508068562 0.18748607298759065 
0.56250000000000000 0.18750000000000000 0.0000000000000000 -2.4298037290272676e-06 -1.5629000320188909e-05 0.26377546938891877 8.2160039675163701e-08 -1.1760849839715077e-08 0.56250000000000000 0.18750000000000000 0.56249757019627100 0.18748437099967982 
0.62500000000000000 0.18750000000000000 0.0000000000000000 -2.5473803645337217e-06 -1.7273890495762736e-05 0.21555045614402468 7.1198392288148783e-08 -2.4632978473398637e-08 0.62500000000000000 0.18750000000000000 0.62499745261963546 0.18748272610950423 
0.68750000000000000 0.18750000000000000 0.0000000000000000 -2.6229795835625246e-06 -1.8853682488199141e-05 0.17371812156124397 6.1833474097441884e-08 -3.4749150662025662e-08 0.68750000000000000 0.18750000000000000 0.68749737702041636 0.18748114631751181 
0.75000000000000000 0.18750000000000000 0.0000000000000000 -2.6624486485797127e-06 -2.0361962092462623e-05 0.13729279275294570 5.3941138445479665e-08 -4.1790239881524366e-08 0.75000000000000000 0.18750000000000000 0.74999733755135145 0.18747963803790754 
0.81250000000000000 0.18750000000000000 0.0000000000000000 -2.6724504468723947e-06 -2.1794595483893341e-05 0.10519172903745973 4.8909691706500523e-08 -4.5279122745946464e-08 0.81250000000000000 0.18750000000000000 0.81249732754955317 0.18747820540451610 
0.87500000000000000 0.18750000000000000 0.0000000000000000 -2.6611676070337817e-06 -2.3150550740917759e-05 0.076369550002483619 4.2349438412715875e-08 -4.5418513660292965e-08 0.87500000000000000 0.18750000000000000 0.87499733883239295 0.18747684944925910 
0.93750000000000000 0.18750000000000000 0.0000000000000000 -2.6394972726318135e-06 -2.4433010907448052e-05 0.050832511615615722 4.7891345740810532e-08 -4.0481629382470245e-08 0.93750000000000000 0.18750000000000000 0.93749736050272736 0.18747556698909254 
1.0000000000000000 0.18750000000000000 0.0000000000000000 -2.6227532401374869e-06 -2.5651180775851772e-05 0.032897377448487086 0.0000000000000000 -3.7831889995168639e-08 1.0000000000000000 0.18750000000000000 0.99999737724675997 0.18747434881922417 
0.062500000000000000 0.25000000000000000 0.0000000000000000 -4.8265561418433369e-08 -1.2677916602478994e-06 0.76733053434854559 -3.2220979180734078e-08 3.3820778594770008e-07 0.062500000000000000 0.25000000000000000 0.062499951734438584 0.24999873220833976 
0.0000000000000000 0.25000000000000000 0.0000000000000000 0.0000000000000000 0.0000000000000000 0.71040703137257522 0.0000000000000000 3.7217833085980040e-07 0.0000000000000000 0.25000000000000000 0.0000000000000000 0.25000000000000000 
0.12500000000000000 0.25000000000000000 0.0000000000000000 -1.6466743589436675e-07 -2.8124236635416699e-06 0.74537340010040276 9.0202182385022136e-08 2.9584231891272752e-07 0.12500000000000000 0.25000000000000000 0.12499983533256410 0.24999718757633646 
0.18750000000000000 0.25000000000000000 0.0000000000000000 -3.5276934217562534e-07 -4.5474189340778137e-06 0.67926144534835675 1.2721514986539403e-07 2.2276299819074776e-07 0.18750000000000000 0.25000000000000000 0.18749964723065782 0.24999545258106592 
0.25000000000000000 0.25000000000000000 0.0000000000000000 -5.9076330180846223e-07 -6.3859132719500928e-06 0.59181272788769002 1.4602409979208068e-07 1.4804874282823461e-07 0.25000000000000000 0.25000000000000000 0.24999940923669819 0.24999361408672804 
0.31250000000000000 0.25000000000000000 0.0000000000000000 -8.4077976906276382e-07 -8.2595232495361120e-06 0.50468344865504189 1.2932755161444741e-07 9.2713967661540612e-08 0.31250000000000000 0.25000000000000000 0.31249915922023092 0.24999174047675046 
0.37500000000000000 0.25000000000000000 0.0000000000000000 -1.0681309691328063e-06 -1.0125503204169538e-05 0.42951637576725976 1.0811986003699374e-07 5.9806711949972687e-08 0.37500000000000000 0.25000000000000000 0.37499893186903094 0.24998987449679586 
0.43750000000000000 0.25000000000000000 0.0000000000000000 -1.2584075333277713e-06 -1.1964528178087822e-05 0.36663185198942161 9.0997299888006952e-08 3.5623575962349173e-08 0.43750000000000000 0.25000000000000000 0.43749874159246666 0.24998803547182194 
0.50000000000000000 0.25000000000000000 0.0000000000000000 -1.4071768057514445e-06 -1.3763426503631710e-05 0.31346526346888709 7.7687944229807618e-08 1.5612640107068124e-08 0.50000000000000000 0.25000000000000000 0.49999859282319425 0.24998623657349636 
0.56250000000000000 0.25000000000000000 0.0000000000000000 -1.5146820907141812e-06 -1.5511011228661292e-05 0.26781138124733378 6.7268777595204391e-08 -1.5098434724295651e-09 0.56250000000000000 0.25000000000000000 0.56249848531790925 0.24998448898877132 
0.62500000000000000 0.25000000000000000 0.0000000000000000 -1.5833606774362899e-06 -1.7197347780689922e-05 0.22814486022540084 5.8777767633904192e-08 -1.6190108259522699e-08 0.62500000000000000 0.25000000000000000 0.62499841663932265 0.24998280265221931 
0.68750000000000000 0.25000000000000000 0.0000000000000000 -1.6167582668202808e-06 -1.8813803176995436e-05 0.19330638344405235 5.2047856282003226e-08 -2.8454039514732506e-08 0.68750000000000000 0.25000000000000000 0.68749838324173318 0.24998118619682300 
0.75000000000000000 0.25000000000000000 0.0000000000000000 -1.6192151889407539e-06 -2.0353243113613825e-05 0.16219190159232874 4.6982800709836493e-08 -3.8319066639702094e-08 0.75000000000000000 0.25000000000000000 0.74999838078481107 0.24997964675688641 
0.81250000000000000 0.25000000000000000 0.0000000000000000 -1.5960971470675983e-06 -2.1810251131333989e-05 0.13359524705508444 4.4868846392117042e-08 -4.5586433687881714e-08 0.81250000000000000 0.25000000000000000 0.81249840390285299 0.24997818974886868 
0.87500000000000000 0.25000000000000000 0.0000000000000000 -1.5545243354571731e-06 -2.3181358173766681e-05 0.10634647020881079 4.1475674656833667e-08 -5.0676068128162966e-08 0.87500000000000000 0.25000000000000000 0.87499844547566463 0.24997681864182622 
0.93750000000000000 0.25000000000000000 0.0000000000000000 -1.5046349982288961e-06 -2.4465289575363851e-05 0.080417050215058919 5.0191498696495250e-08 -5.1515723999204088e-08 0.93750000000000000 0.25000000000000000 0.93749849536500174 0.24997553471042464 
1.0000000000000000 0.25000000000000000 0.0000000000000000 -1.4612742939192848e-06 -2.5663292845031215e-05 0.059653489736013254 0.0000000000000000 -5.4756927796144205e-08 1.0000000000000000 0.25000000000000000 0.99999853872570610 0.24997433670715496 
0.062500000000000000 0.31250000000000000 0.0000000000000000 -2.4416314161080252e-08 -1.2156095126315243e-06 0.56702399731076836 -5.8308802167429773e-08 2.9371947886939374e-07 0.062500000000000000 0.31250000000000000 0.062499975583685842 0.31249878439048739 
0.0000000000000000 0.31250000000000000 0.0000000000000000 0.0000000000000000 0.0000000000000000 0.50868027237842151 0.0000000000000000 3.1422512124046372e-07 0.0000000000000000 0.31250000000000000 0.0000000000000000 0.31250000000000000 
0.12500000000000000 0.31250000000000000 0.0000000000000000 -7.2056332574588473e-08 -2.7009977479484512e-06 0.56917592494875224 4.0890254545375086e-08 2.6600742595869620e-07 0.12500000000000000 0.31250000000000000 0.12499992794366742 0.31249729900225204 
0.18750000000000000 0.31250000000000000 0.0000000000000000 -1.5374474140736172e-07 -4.3854343705153149e-06 0.54034036378954053 6.3064979772389763e-08 2.1753480343963889e-07 0.18750000000000000 0.31250000000000000 0.18749984625525859 0.31249561456562946 
0.25000000000000000 0.31250000000000000 0.0000000000000000 -2.6458448487594056e-07 -6.1961855542915216e-06 0.49362699702979462 8.3514543387721934e-08 1.6381272123730256e-07 0.25000000000000000 0.31250000000000000 0.24999973541551510 0.31249380381444564 
0.31250000000000000 0.31250000000000000 0.0000000000000000 -3.8872799721801103e-07 -8.0705391706025204e-06 0.43970157838299667 8.6053640742366226e-08 1.1360267343876923e-07 0.31250000000000000 0.31250000000000000 0.31249961127200271 0.31249192946082932 
0.37500000000000000 0.31250000000000000 0.0000000000000000 -5.0670141704392608e-07 -9.9603848543073525e-06 0.38733048471310688 7.8510000124105024e-08 7.5254635419139623e-08 0.37500000000000000 0.31250000000000000 0.37499949329858295 0.31249003961514571 
0.43750000000000000 0.31250000000000000 0.0000000000000000 -6.0319746988928499e-07 -1.1833216897549834e-05 0.34098507542517725 6.7817520921541696e-08 4.6836761264513048e-08 0.43750000000000000 0.31250000000000000 0.43749939680253019 0.31248816678310248 
0.50000000000000000 0.31250000000000000 0.0000000000000000 -6.7121238353044194e-07 -1.3668689733423330e-05 0.30107345422164894 5.8347687996314415e-08 2.4327799846560045e-08 0.50000000000000000 0.31250000000000000 0.49999932878761649 0.31248633131026660 
0.56250000000000000 0.31250000000000000 0.0000000000000000 -7.0877474012815466e-07 -1.5452153423284714e-05 0.26664789290449847 5.0628347380514149e-08 5.4459950699931743e-09 0.56250000000000000 0.31250000000000000 0.56249929122525988 0.31248454784657670 
0.62500000000000000 0.31250000000000000 0.0000000000000000 -7.1656773010178116e-07 -1.7172005433961848e-05 0.23664053194730242 4.4474260711683768e-08 -1.0801940597062581e-08 0.62500000000000000 0.31250000000000000 0.62499928343226985 0.31248282799456600 
0.68750000000000000 0.31250000000000000 0.0000000000000000 -6.9667407901659531e-07 -1.8818672584111132e-05 0.21006222628170287 3.9901819906571708e-08 -2.4860660562647241e-08 0.68750000000000000 0.31250000000000000 0.68749930332592102 0.31248118132741581 
0.75000000000000000 0.31250000000000000 0.0000000000000000 -6.5210850851677239e-07 -2.0384143705340654e-05 0.18588716037087052 3.6925994833007717e-08 -3.7049335985004245e-08 0.75000000000000000 0.31250000000000000 0.74999934789149147 0.31247961585629463 
0.81250000000000000 0.31250000000000000 0.0000000000000000 -5.8693659423856992e-07 -2.1861636442661054e-05 0.16294235459549591 3.6707588184906069e-08 -4.7433579252130211e-08 0.81250000000000000 0.31250000000000000 0.81249941306340567 0.31247813836355731 
0.87500000000000000 0.31250000000000000 0.0000000000000000 -5.0690947988565547e-07 -2.3245211339543578e-05 0.14000815029023161 3.5670910928137305e-08 -5.6598908368602613e-08 0.87500000000000000 0.31250000000000000 0.87499949309052016 0.31247675478866044 
0.93750000000000000 0.31250000000000000 0.0000000000000000 -4.2060564456912539e-07 -2.4529188833007928e-05 0.11679785480395222 4.6188256240261999e-08 -6.2257759776042044e-08 0.93750000000000000 0.31250000000000000 0.93749957939435546 0.31247547081116700 
1.0000000000000000 0.31250000000000000 0.0000000000000000 -3.4086114432145987e-07 -2.5707183837599725e-05 0.095269275950230645 0.0000000000000000 -7.0510033135497294e-08 1.0000000000000000 0.31250000000000000 0.99999965913885569 0.31247429281616240 
0.062500000000000000 0.37500000000000000 0.0000000000000000 -8.3932872892358160e-09 -1.2022160740933794e-06 0.39189536155163629 -7.8542184624663249e-08 2.6436080644402788e-07 0.062500000000000000 0.37500000000000000 0.062499991606712713 0.37499879778392592 
0.0000000000000000 0.37500000000000000 0.0000000000000000 0.0000000000000000 0.0000000000000000 0.33134049103611057 0.0000000000000000 2.8100583730005971e-07 0.0000000000000000 0.37500000000000000 0.0000000000000000 0.37500000000000000 
0.12500000000000000 0.37500000000000000 0.0000000000000000 -8.5923276913984337e-09 -2.6657926415163321e-06 0.41099697697117160 4.8386989640945748e-09 2.4067270451904370e-07 0.12500000000000000 0.37500000000000000 0.12499999140767230 0.37499733420735848 
0.18750000000000000 0.37500000000000000 0.0000000000000000 -1.2660920163513565e-08 -4.3281518982628455e-06 0.40745549878265391 1.7721488903740999e-08 2.0437490054179331e-07 0.18750000000000000 0.37500000000000000 0.18749998733907983 0.37499567184810173 
0.25000000000000000 0.37500000000000000 0.0000000000000000 -2.3697994652282483e-08 -6.1245425546602956e-06 0.39023749876229341 3.6136857094603401e-08 1.6408721459452238e-07 0.25000000000000000 0.37500000000000000 0.24999997630200535 0.37499387545744534 
0.31250000000000000 0.37500000000000000 0.0000000000000000 -3.8039784092884044e-08 -7.9971675845937612e-06 0.36501074566052405 4.3627332157741600e-08 1.2293799509881192e-07 0.31250000000000000 0.37500000000000000 0.31249996196021584 0.37499200283241541 
0.37500000000000000 0.37500000000000000 0.0000000000000000 -4.8178119951607051e-08 -9.8985417466431231e-06 0.33658472680428742 4.5245179840787131e-08 8.5953893980512038e-08 0.37500000000000000 0.37500000000000000 0.37499995182188006 0.37499010145825334 
0.43750000000000000 0.37500000000000000 0.0000000000000000 -4.6028391384089091e-08 -1.1792508501532588e-05 0.30879960281018065 4.1903303485967666e-08 5.5593275777284501e-08 0.43750000000000000 0.37500000000000000 0.43749995397160862 0.37498820749149847 
0.50000000000000000 0.37500000000000000 0.0000000000000000 -2.5838095196318368e-08 -1.3653277376501018e-05 0.28365090453109493 3.7128879445723718e-08 3.1156017763886215e-08 0.50000000000000000 0.37500000000000000 0.49999997416190478 0.37498634672262349 
0.56250000000000000 0.37500000000000000 0.0000000000000000 1.4795950232478846e-08 -1.5462787686403515e-05 0.26152740669256402 3.2535358430213581e-08 1.0772481025435193e-08 0.56250000000000000 0.37500000000000000 0.56250001479595024 0.37498453721231367 
0.62500000000000000 0.37500000000000000 0.0000000000000000 7.6051429876645780e-08 -1.7207614044404316e-05 0.24210285303709936 2.8727363823596869e-08 -6.7581882142729713e-09 0.62500000000000000 0.37500000000000000 0.62500007605142993 0.37498279238595561 
0.68750000000000000 0.37500000000000000 0.0000000000000000 1.5683959090511859e-07 -1.8877163406993668e-05 0.22479403753624785 2.5992571391507809e-08 -2.2201696258594852e-08 0.68750000000000000 0.37500000000000000 0.68750015683959098 0.37498112283659296 
0.75000000000000000 0.37500000000000000 0.0000000000000000 2.5526389075276766e-07 -2.0462585530965963e-05 0.20883796341177716 2.4532725484315629e-08 -3.6133221293476823e-08 0.75000000000000000 0.37500000000000000 0.75000025526389080 0.37497953741446904 
0.81250000000000000 0.37500000000000000 0.0000000000000000 3.6859438449104338e-07 -2.1955908780071960e-05 0.19324304112618981 2.5374015930024757e-08 -4.8873716724376131e-08 0.81250000000000000 0.37500000000000000 0.81250036859438446 0.37497804409121999 
0.87500000000000000 0.37500000000000000 0.0000000000000000 4.9278801453890566e-07 -2.3349097024569422e-05 0.17682190609211912 2.5987242402792447e-08 -6.1110031376110702e-08 0.87500000000000000 0.37500000000000000 0.87500049278801451 0.37497665090297544 