# For a description of the Tecplot format see the Tecplot User's guide.
#
Variables=x,y,z,s_u,s_v,s_p,x,y,ref_u,ref_v,u,v
Zone f=fepoint, n=289, e=512, et=quadrilateral, c=black
0.00000 0.00000 0.00000 0.0000000000000000 0.0000000000000000 1.8695136178800795 0.0000000000000000 0.0000000000000000 0.0000000000000000 0.0000000000000000 0.0000000000000000 0.0000000000000000 
0.062500000000000000 0.0000000000000000 0.0000000000000000 -1.5647357393088354e-06 -3.2375236392936670e-06 1.5119235256742638 1.3030485136920026e-06 0.0000000000000000 0.062500000000000000 0.0000000000000000 0.062498435264260688 -3.2375236392936670e-06 
0.062500000000000000 0.062500000000000000 0.0000000000000000 -3.7509794474625998e-07 -2.0505096543130780e-06 1.5519642824765594 7.5564499349006887e-07 3.5968551854021353e-07 0.062500000000000000 0.062500000000000000 0.062499624902055247 0.062497949490345685 
0.0000000000000000 0.062500000000000000 0.0000000000000000 0.0000000000000000 0.0000000000000000 1.6260030245035419 0.0000000000000000 1.0263897107992774e-06 0.0000000000000000 0.062500000000000000 0.0000000000000000 0.062500000000000000 
0.12500000000000000 0.0000000000000000 0.0000000000000000 -2.6223030374477659e-06 -5.1422992180605080e-06 1.1043812258693206 4.5412737306696320e-07 0.0000000000000000 0.12500000000000000 0.0000000000000000 0.12499737769696255 -5.1422992180605080e-06 
0.12500000000000000 0.062500000000000000 0.0000000000000000 -1.3142627801660646e-06 -4.2065545335961839e-06 1.1834804074262919 4.6373159319663197e-07 -1.5364577926362960e-07 0.12500000000000000 0.062500000000000000 0.12499868573721984 0.062495793445466401 
0.18750000000000000 0.0000000000000000 0.0000000000000000 -3.4657767525251777e-06 -6.8054167002493277e-06 0.86016624692649979 3.1950402255922079e-07 0.0000000000000000 0.18750000000000000 0.0000000000000000 0.18749653422324744 -6.8054167002493277e-06 
0.18750000000000000 0.062500000000000000 0.0000000000000000 -2.1139406629126938e-06 -6.0452868205985436e-06 0.91116478414223678 3.5367284306239743e-07 -3.6489868809565320e-08 0.18750000000000000 0.062500000000000000 0.18749788605933707 0.062493954713179402 
0.25000000000000000 0.0000000000000000 0.0000000000000000 -4.1628971776063924e-06 -8.4032486899412215e-06 0.69312844220516678 2.3629265876307963e-07 0.0000000000000000 0.25000000000000000 0.0000000000000000 0.24999583710282239 -8.4032486899412215e-06 
0.25000000000000000 0.062500000000000000 0.0000000000000000 -2.7860784877397625e-06 -7.7765202472157396e-06 0.72773602982067331 2.4112815407785960e-07 -2.3507147839099852e-08 0.25000000000000000 0.062500000000000000 0.24999721392151228 0.062492223479752786 
0.31250000000000000 0.0000000000000000 0.0000000000000000 -4.7394373582852181e-06 -9.9817809204197295e-06 0.56365604355818344 1.9460666143901467e-07 0.0000000000000000 0.31250000000000000 0.0000000000000000 0.31249526056264171 -9.9817809204197295e-06 
0.31250000000000000 0.062500000000000000 0.0000000000000000 -3.3461661197702260e-06 -9.4662636224852312e-06 0.59143933768624191 1.9300592814164840e-07 -1.5648024976277542e-08 0.31250000000000000 0.062500000000000000 0.31249665383388026 0.062490533736377522 
0.37500000000000000 0.0000000000000000 0.0000000000000000 -5.2092333042360085e-06 -1.1551945130081552e-05 0.45539652732636410 1.6899704451776211e-07 0.0000000000000000 0.37500000000000000 0.0000000000000000 0.37499479076669578 -1.1551945130081552e-05 
0.37500000000000000 0.062500000000000000 0.0000000000000000 -3.8066075685462397e-06 -1.1133719472054045e-05 0.48110241731510145 1.6191845052487866e-07 -1.9697310166952825e-08 0.37500000000000000 0.062500000000000000 0.37499619339243145 0.062488866280527945 
0.43750000000000000 0.0000000000000000 0.0000000000000000 -5.5824720217559366e-06 -1.3112054556856338e-05 0.36165452608943854 1.4903982330048299e-07 0.0000000000000000 0.43750000000000000 0.0000000000000000 0.43749441752797824 -1.3112054556856338e-05 
0.43750000000000000 0.062500000000000000 0.0000000000000000 -4.1778954264320541e-06 -1.2780455751509822e-05 0.38728544935197823 1.3973880180309518e-07 -2.7842620349642814e-08 0.43750000000000000 0.062500000000000000 0.43749582210457355 0.062487219544248497 
0.50000000000000000 0.0000000000000000 0.0000000000000000 -5.8684984641667064e-06 -1.4655469447581265e-05 0.27981077117885539 1.3095345382160705e-07 0.0000000000000000 0.50000000000000000 0.0000000000000000 0.49999413150153577 -1.4655469447581265e-05 
0.50000000000000000 0.062500000000000000 0.0000000000000000 -4.4695523275760518e-06 -1.4400953323565461e-05 0.30595473642451715 1.2129558331324305e-07 -3.7143272313877102e-08 0.50000000000000000 0.062500000000000000 0.49999553044767248 0.062485599046676436 
0.56250000000000000 0.0000000000000000 0.0000000000000000 -6.0768793004827928e-06 -1.6173880090682358e-05 0.20897064791943601 1.1306664074736924e-07 0.0000000000000000 0.56250000000000000 0.0000000000000000 0.56249392312069957 -1.6173880090682358e-05 
0.56250000000000000 0.062500000000000000 0.0000000000000000 -4.6907211565476169e-06 -1.5987095548889728e-05 0.23545137722963991 1.0434247649275442e-07 -4.5702771571578110e-08 0.56250000000000000 0.062500000000000000 0.56249530927884350 0.062484012904451110 
0.62500000000000000 0.0000000000000000 0.0000000000000000 -6.2178483277350125e-06 -1.7659009474388052e-05 0.14894718442130475 9.4679971966607303e-08 0.0000000000000000 0.62500000000000000 0.0000000000000000 0.62499378215167223 -1.7659009474388052e-05 
0.62500000000000000 0.062500000000000000 0.0000000000000000 -4.8505137034759595e-06 -1.7530381685466951e-05 0.17512509421740718 8.7977180160746272e-08 -5.2248088162213858e-08 0.62500000000000000 0.062500000000000000 0.62499514948629653 0.062482469618314530 
0.68750000000000000 0.0000000000000000 0.0000000000000000 -6.3025322022627191e-06 -1.9103713081809996e-05 0.099781749615361404 7.5762888463034841e-08 0.0000000000000000 0.68750000000000000 0.0000000000000000 0.68749369746779776 -1.9103713081809996e-05 
0.68750000000000000 0.062500000000000000 0.0000000000000000 -4.9582237227114311e-06 -1.9023242023192812e-05 0.12468967426908879 7.2036698285398886e-08 -5.5735602150855267e-08 0.68750000000000000 0.062500000000000000 0.68749504177627729 0.062480976757976807 
0.75000000000000000 0.0000000000000000 0.0000000000000000 -6.3430934754212570e-06 -2.0502931919885050e-05 0.061468508185777981 5.6045882832328422e-08 0.0000000000000000 0.75000000000000000 0.0000000000000000 0.74999365690652453 -2.0502931919885050e-05 
0.75000000000000000 0.062500000000000000 0.0000000000000000 -5.0234757584294480e-06 -2.0460082615801198e-05 0.083883141006396364 5.6500559056662262e-08 -5.5222286565554874e-08 0.75000000000000000 0.062500000000000000 0.74999497652424152 0.062479539917384197 
0.81250000000000000 0.0000000000000000 0.0000000000000000 -6.3527912495752314e-06 -2.1854783766998799e-05 0.033760035220093819 3.7494882274820655e-08 0.0000000000000000 0.81250000000000000 0.0000000000000000 0.81249364720875039 -2.1854783766998799e-05 
0.81250000000000000 0.062500000000000000 0.0000000000000000 -5.0563548714005118e-06 -2.1838429594195520e-05 0.052279786964310314 4.2692591523773089e-08 -4.9747996839173661e-08 0.81250000000000000 0.062500000000000000 0.81249494364512864 0.062478161570405803 
0.87500000000000000 0.0000000000000000 0.0000000000000000 -6.3458031092324441e-06 -2.3161967460391669e-05 0.015972829479046238 1.7337343438457164e-08 0.0000000000000000 0.87500000000000000 0.0000000000000000 0.87499365419689079 -2.3161967460391669e-05 
0.87500000000000000 0.062500000000000000 0.0000000000000000 -5.0675283284011341e-06 -2.3160443216189924e-05 0.029221462649492103 2.8239249315507371e-08 -3.8831074988394391e-08 0.87500000000000000 0.062500000000000000 0.87499493247167159 0.062476839556783813 
0.93750000000000000 0.0000000000000000 0.0000000000000000 -6.3362947791235292e-06 -2.4433290613074148e-05 0.0067414158605935137 5.9625941918138375e-09 0.0000000000000000 0.93750000000000000 0.0000000000000000 0.93749366370522091 -2.4433290613074148e-05 
0.93750000000000000 0.062500000000000000 0.0000000000000000 -5.0682977809526048e-06 -2.4434985167957636e-05 0.013959367471573910 2.3415112407295165e-08 -2.3191753220317922e-08 0.93750000000000000 0.062500000000000000 0.93749493170221909 0.062475565014832042 
1.0000000000000000 0.0000000000000000 0.0000000000000000 -6.3341433783516996e-06 -2.5682053962832198e-05 0.0034276717119734916 0.0000000000000000 0.0000000000000000 1.0000000000000000 0.0000000000000000 0.99999366585662164 -2.5682053962832198e-05 
1.0000000000000000 0.062500000000000000 0.0000000000000000 -5.0700404995513348e-06 -2.5679937741695028e-05 0.0067600536178697703 0.0000000000000000 -6.1302737874342196e-09 1.0000000000000000 0.062500000000000000 0.99999492995950046 0.062474320062258303 
0.062500000000000000 0.12500000000000000 0.0000000000000000 -1.6899916703714201e-07 -1.6066364061471668e-06 1.2828684388834370 9.5547176183535911e-08 4.5113055389491237e-07 0.062500000000000000 0.12500000000000000 0.062499831000832957 0.12499839336359385 
0.0000000000000000 0.12500000000000000 0.0000000000000000 0.0000000000000000 0.0000000000000000 1.2493563270428083 0.0000000000000000 5.9306985746061124e-07 0.0000000000000000 0.12500000000000000 0.0000000000000000 0.12500000000000000 
0.12500000000000000 0.12500000000000000 0.0000000000000000 -6.0855478656160103e-07 -3.4495746036456804e-06 1.1168254061267451 3.8065699449362848e-07 2.6240608715238919e-07 0.12500000000000000 0.12500000000000000 0.12499939144521344 0.12499655042539635 
0.18750000000000000 0.12500000000000000 0.0000000000000000 -1.2157845942858214e-06 -5.3631188455116740e-06 0.89304068021114780 3.4076349360234107e-07 9.6500169150459933e-08 0.18750000000000000 0.12500000000000000 0.18749878421540569 0.12499463688115449 
0.25000000000000000 0.12500000000000000 0.0000000000000000 -1.7786549484793028e-06 -7.1955612229255719e-06 0.71589235220636682 2.3342678096611851e-07 5.3979893672976412e-08 0.25000000000000000 0.12500000000000000 0.24999822134505154 0.12499280443877707 
0.31250000000000000 0.12500000000000000 0.0000000000000000 -2.2668275449926485e-06 -8.9812333292813460e-06 0.58348298262313736 1.8429518185469541e-07 3.9168773684286395e-08 0.31250000000000000 0.12500000000000000 0.31249773317245499 0.12499101876667072 
0.37500000000000000 0.12500000000000000 0.0000000000000000 -2.6767270760189347e-06 -1.0735864453434140e-05 0.47897180732596500 1.4996913206540620e-07 2.2753818434092135e-08 0.37500000000000000 0.12500000000000000 0.37499732327292395 0.12498926413554656 
0.43750000000000000 0.12500000000000000 0.0000000000000000 -3.0119731375392923e-06 -1.2461111082632577e-05 0.39208425701649380 1.2777698615456302e-07 7.4119085045006006e-09 0.43750000000000000 0.12500000000000000 0.43749698802686249 0.12498753888891735 
0.50000000000000000 0.12500000000000000 0.0000000000000000 -3.2785128872597802e-06 -1.4151804871510720e-05 0.31772702975471134 1.1040746933697486e-07 -7.1605808938301731e-09 0.50000000000000000 0.12500000000000000 0.49999672148711266 0.12498584819512849 
0.56250000000000000 0.12500000000000000 0.0000000000000000 -3.4831145407522220e-06 -1.5800017834060788e-05 0.25347272602015941 9.5470544605060882e-08 -2.0002870389876486e-08 0.56250000000000000 0.12500000000000000 0.56249651688545921 0.12498419998216594 
0.62500000000000000 0.12500000000000000 0.0000000000000000 -3.6328695777690327e-06 -1.7397269192078875e-05 0.19811028940803532 8.1839577361551141e-08 -3.0452261452813279e-08 0.62500000000000000 0.12500000000000000 0.62499636713042228 0.12498260273080793 
0.68750000000000000 0.12500000000000000 0.0000000000000000 -3.7350714132651899e-06 -1.8935853887242717e-05 0.15088953628606638 6.9312211829653145e-08 -3.7881800114472199e-08 0.68750000000000000 0.12500000000000000 0.68749626492858684 0.12498106414611276 
0.75000000000000000 0.12500000000000000 0.0000000000000000 -3.7972937451759272e-06 -2.0409845711647872e-05 0.11112380745979449 5.7754572402118468e-08 -4.1737690320706467e-08 0.75000000000000000 0.12500000000000000 0.74999620270625478 0.12497959015428835 
0.81250000000000000 0.12500000000000000 0.0000000000000000 -3.8276552782392898e-06 -2.1816116884313588e-05 0.078015857263527708 4.8614401470101419e-08 -4.1360174935311777e-08 0.81250000000000000 0.12500000000000000 0.81249617234472182 0.12497818388311567 
0.87500000000000000 0.12500000000000000 0.0000000000000000 -3.8353214957210708e-06 -2.3155628353361247e-05 0.050729328851260212 3.7945139235317043e-08 -3.6784560272230652e-08 0.87500000000000000 0.12500000000000000 0.87499616467850416 0.12497684437164662 
0.93750000000000000 0.12500000000000000 0.0000000000000000 -3.8313253670412533e-06 -2.4435247429848836e-05 0.029051090100450372 3.8262877699479782e-08 -2.7320011509138441e-08 0.93750000000000000 0.12500000000000000 0.93749616867463292 0.12497556475257014 
1.0000000000000000 0.12500000000000000 0.0000000000000000 -3.8297046142395866e-06 -2.5670631263353771e-05 0.015976364541454211 0.0000000000000000 -1.7851519057801683e-08 1.0000000000000000 0.12500000000000000 0.99999617029538579 0.12497432936873665 
0.062500000000000000 0.18750000000000000 0.0000000000000000 -8.9832552609987241e-08 -1.3830962151576689e-06 1.0020871033458063 1.9665340932901253e-08 4.1068813670700532e-07 0.062500000000000000 0.18750000000000000 0.062499910167447388 0.18749861690378486 
0.0000000000000000 0.18750000000000000 0.0000000000000000 0.0000000000000000 0.0000000000000000 0.94835468720687244 0.0000000000000000 4.6479556485367584e-07 0.0000000000000000 0.18750000000000000 0.0000000000000000 0.18750000000000000 
0.12500000000000000 0.18750000000000000 0.0000000000000000 -3.1935101642733960e-07 -3.0395668053772759e-06 0.93741674058913416 1.8449446545717285e-07 3.2388208801928500e-07 0.12500000000000000 0.18750000000000000 0.12499968064898358 0.18749696043319461 
0.18750000000000000 0.18750000000000000 0.0000000000000000 -6.6838117505119333e-07 -4.8559027796689150e-06 0.80932482295635377 2.2910148615139335e-07 1.7785355066837600e-07 0.18750000000000000 0.18750000000000000 0.18749933161882495 0.18749514409722032 
0.25000000000000000 0.18750000000000000 0.0000000000000000 -1.0719773804635214e-06 -6.7222190790731371e-06 0.67034527185394122 2.0415998483691420e-07 9.6716735193666894e-08 0.25000000000000000 0.18750000000000000 0.24999892802261955 0.18749327778092093 
0.31250000000000000 0.18750000000000000 0.0000000000000000 -1.4502247607705911e-06 -8.5709531022441082e-06 0.55428483928542338 1.6357058936169304e-07 6.2737213688011438e-08 0.31250000000000000 0.18750000000000000 0.31249854977523922 0.18749142904689775 
0.37500000000000000 0.18750000000000000 0.0000000000000000 -1.7787090544039778e-06 -1.0393309727013533e-05 0.46126800049543565 1.3196965194915702e-07 3.9180840585187178e-08 0.37500000000000000 0.18750000000000000 0.37499822129094568 0.18748960669027295 
0.43750000000000000 0.18750000000000000 0.0000000000000000 -2.0510828833100085e-06 -1.2183785418102235e-05 0.38474192204684005 1.1103182084386281e-07 2.0230086389708716e-08 0.43750000000000000 0.18750000000000000 0.43749794891711674 0.18748781621458191 
0.50000000000000000 0.18750000000000000 0.0000000000000000 -2.2679453386915925e-06 -1.3934806727175433e-05 0.31996754167608826 9.5094689591260141e-08 3.0522564828151136e-09 0.50000000000000000 0.18750000000000000 0.49999773205466130 0.18748606519327282 
0.56250000000000000 0.18750000000000000 0.0000000000000000 -2.4327731799770957e-06 -1.5637558677683098e-05 0.26422775851914249 8.2261543828711726e-08 -1.2048044665880551e-08 0.56250000000000000 0.18750000000000000 0.56249756722681987 0.18748436244132230 
0.62500000000000000 0.18750000000000000 0.0000000000000000 -2.5502846607936345e-06 -1.7283181323918622e-05 0.21596169441867050 7.1278630568889304e-08 -2.4809650226737693e-08 0.62500000000000000 0.18750000000000000 0.62499744971533922 0.18748271681867609 
0.68750000000000000 0.18750000000000000 0.0000000000000000 -2.6258143939170452e-06 -1.8863681205531865e-05 0.17409609995154995 6.1904128989910661e-08 -3.4838851824383161e-08 0.68750000000000000 0.18750000000000000 0.68749737418560608 0.18748113631879446 
0.75000000000000000 0.18750000000000000 0.0000000000000000 -2.6652153840075066e-06 -2.0372651039721839e-05 0.13764463903429625 5.3988355059228816e-08 -4.1814741038747325e-08 0.75000000000000000 0.18750000000000000 0.74999733478461594 0.18747962734896029 
0.81250000000000000 0.18750000000000000 0.0000000000000000 -2.6751547820832560e-06 -2.1805965442630357e-05 0.10553806355123807 4.8902472728374175e-08 -4.5267263605386424e-08 0.81250000000000000 0.18750000000000000 0.81249732484521797 0.18747819403455737 
0.87500000000000000 0.18750000000000000 0.0000000000000000 -2.6638140570248552e-06 -2.3162602920699023e-05 0.076764213856776994 4.2210158615991472e-08 -4.5373234267150030e-08 0.87500000000000000 0.18750000000000000 0.87499733618594300 0.18747683739707929 
0.93750000000000000 0.18750000000000000 0.0000000000000000 -2.6420773503734050e-06 -2.4445757277884630e-05 0.051352627841904301 4.7477075135292162e-08 -4.0495963925804946e-08 0.93750000000000000 0.18750000000000000 0.93749735792264965 0.18747555424272211 
1.0000000000000000 0.18750000000000000 0.0000000000000000 -2.6252429845792981e-06 -2.5664640352547413e-05 0.033533909955281362 0.0000000000000000 -3.7676108574118363e-08 1.0000000000000000 0.18750000000000000 0.99999737475701556 0.18747433535964744 
0.062500000000000000 0.25000000000000000 0.0000000000000000 -4.9303994270850644e-08 -1.2686818425743011e-06 0.76572816973279234 -3.5255383947595915e-08 3.3708515591800606e-07 0.062500000000000000 0.25000000000000000 0.062499950696005731 0.24999873131815739 
0.0000000000000000 0.25000000000000000 0.0000000000000000 0.0000000000000000 0.0000000000000000 0.70827472563237193 0.0000000000000000 3.6947187587623929e-07 0.0000000000000000 0.25000000000000000 0.0000000000000000 0.25000000000000000 
0.12500000000000000 0.25000000000000000 0.0000000000000000 -1.6642772161879860e-07 -2.8144560311774781e-06 0.74499185937392898 8.8882879485867827e-08 2.9467542855125325e-07 0.12500000000000000 0.25000000000000000 0.12499983357227838 0.24999718554396885 
0.18750000000000000 0.25000000000000000 0.0000000000000000 -3.5494870439403808e-07 -4.5505503698114736e-06 0.67969283494785049 1.2628002765484727e-07 2.2196170147183405e-07 0.18750000000000000 0.25000000000000000 0.18749964505129560 0.24999544944963017 
0.25000000000000000 0.25000000000000000 0.0000000000000000 -5.9307549085122238e-07 -6.3900243171043001e-06 0.59271868773260761 1.4559393149953674e-07 1.4760365004787468e-07 0.25000000000000000 0.25000000000000000 0.24999940692450914 0.24999360997568290 
0.31250000000000000 0.25000000000000000 0.0000000000000000 -8.4304393456467858e-07 -8.2645440195983813e-06 0.50576608156558522 1.2937127279306957e-07 9.2520551567122636e-08 0.31250000000000000 0.25000000000000000 0.31249915695606539 0.24999173545598041 
0.37500000000000000 0.25000000000000000 0.0000000000000000 -1.0703314873050133e-06 -1.0131433359846807e-05 0.43053153324617727 1.0839484390557110e-07 5.9551354290287570e-08 0.37500000000000000 0.25000000000000000 0.37499892966851261 0.24998986856664016 
0.43750000000000000 0.25000000000000000 0.0000000000000000 -1.2605578432543336e-06 -1.1971337143129176e-05 0.36749672660283572 9.1272194978057417e-08 3.5358964912626266e-08 0.43750000000000000 0.25000000000000000 0.43749873944215673 0.24998802866285688 
0.50000000000000000 0.25000000000000000 0.0000000000000000 -1.4092830510479891e-06 -1.3771070283315571e-05 0.31418632365635712 7.7912986888745700e-08 1.5381555600813161e-08 0.50000000000000000 0.25000000000000000 0.49999859071694891 0.24998622892971670 
0.56250000000000000 0.25000000000000000 0.0000000000000000 -1.5167419717691863e-06 -1.5519446930748325e-05 0.26841717380152835 6.7443100034093390e-08 -1.6938473521527546e-09 0.56250000000000000 0.25000000000000000 0.56249848325802809 0.24998448055306924 
0.62500000000000000 0.25000000000000000 0.0000000000000000 -1.5853692154672925e-06 -1.7206538091831395e-05 0.22865955080605491 5.8917506191646657e-08 -1.6328075833408882e-08 0.62500000000000000 0.25000000000000000 0.62499841463078454 0.24998279346190813 
0.68750000000000000 0.25000000000000000 0.0000000000000000 -1.6187124402538383e-06 -1.8823716798848388e-05 0.19374636796355879 5.2165009867370761e-08 -2.8553698861086658e-08 0.68750000000000000 0.25000000000000000 0.68749838128755980 0.24998117628320116 
0.75000000000000000 0.25000000000000000 0.0000000000000000 -1.6211163565281285e-06 -2.0363854739179952e-05 0.16257211007374470 4.7065500730344748e-08 -3.8383436688725348e-08 0.75000000000000000 0.25000000000000000 0.74999837888364340 0.24997963614526084 
0.81250000000000000 0.25000000000000000 0.0000000000000000 -1.5979508158524057e-06 -2.1821542013304024e-05 0.13394082276069177 4.4903299473249346e-08 -4.5618951207907004e-08 0.81250000000000000 0.25000000000000000 0.81249840204918400 0.24997817845798667 
0.87500000000000000 0.25000000000000000 0.0000000000000000 -1.5563364287490228e-06 -2.3193317100917186e-05 0.10671077409204043 4.1361541477619253e-08 -5.0637672946264830e-08 0.87500000000000000 0.25000000000000000 0.87499844366357127 0.24997680668289909 
0.93750000000000000 0.25000000000000000 0.0000000000000000 -1.5064020593533479e-06 -2.4477913852790864e-05 0.080869811447471282 4.9905556619809432e-08 -5.1455137509138171e-08 0.93750000000000000 0.25000000000000000 0.93749849359794080 0.24997552208614723 
1.0000000000000000 0.25000000000000000 0.0000000000000000 -1.4629845284038452e-06 -2.5676588696439378e-05 0.060212328480759338 0.0000000000000000 -5.4339892324773139e-08 1.0000000000000000 0.25000000000000000 0.99999853701547148 0.24997432341130357 
0.062500000000000000 0.31250000000000000 0.0000000000000000 -2.5095514562092595e-08 -1.2163384231499397e-06 0.56621048013377162 -6.0743312040008328e-08 2.9328781340157933e-07 0.062500000000000000 0.31250000000000000 0.062499974904485438 0.31249878366157685 
0.0000000000000000 0.31250000000000000 0.0000000000000000 0.0000000000000000 0.0000000000000000 0.50740356695960209 0.0000000000000000 3.1276365249614565e-07 0.0000000000000000 0.31250000000000000 0.0000000000000000 0.31250000000000000 
0.12500000000000000 0.31250000000000000 0.0000000000000000 -7.3183135528567089e-08 -2.7027073287990463e-06 0.56937834566718415 3.9659125564301934e-08 2.6561325954359559e-07 0.12500000000000000 0.31250000000000000 0.12499992681686446 0.31249729729267123 
0.18750000000000000 0.31250000000000000 0.0000000000000000 -1.5512812470212968e-07 -4.3881961338624973e-06 0.54117934455381389 6.2357781754048497e-08 2.1730324164062907e-07 0.18750000000000000 0.31250000000000000 0.18749984487187529 0.31249561180386615 
0.25000000000000000 0.31250000000000000 0.0000000000000000 -2.6607333352408297e-07 -6.1999754524834036e-06 0.49474688770011888 8.3365831840841787e-08 1.6362863565653306e-07 0.25000000000000000 0.31250000000000000 0.24999973392666644 0.31249380002454746 
0.31250000000000000 0.31250000000000000 0.0000000000000000 -3.9020891535442514e-07 -8.0752994822103336e-06 0.44088598993118655 8.6098727153406453e-08 1.1350929792269301e-07 0.31250000000000000 0.31250000000000000 0.31249960979108465 0.31249192470051779 
0.37500000000000000 0.31250000000000000 0.0000000000000000 -5.0811520026689969e-07 -9.9660732085416399e-06 0.38845370232048021 7.8717016061336019e-08 7.5170857691601981e-08 0.37500000000000000 0.31250000000000000 0.37499949188479981 0.31249003392679148 
0.43750000000000000 0.31250000000000000 0.0000000000000000 -6.0454178691020081e-07 -1.1839807722970236e-05 0.34197464762214375 6.8073524028605797e-08 4.6723596459494515e-08 0.43750000000000000 0.31250000000000000 0.43749939545821309 0.31248816019227704 
0.50000000000000000 0.31250000000000000 0.0000000000000000 -6.7249548803166014e-07 -1.3676146388137985e-05 0.30191560065369666 5.8586199739880599e-08 2.4199697881942544e-08 0.50000000000000000 0.31250000000000000 0.49999932750451198 0.31248632385361180 
0.56250000000000000 0.31250000000000000 0.0000000000000000 -7.1000123706841974e-07 -1.5460433600461479e-05 0.26735787346186135 5.0829379412535197e-08 5.3236261551992555e-09 0.56250000000000000 0.31250000000000000 0.56249928999876297 0.31248453956639954 
0.62500000000000000 0.31250000000000000 0.0000000000000000 -7.1773875627970236e-07 -1.7181067760297631e-05 0.23723861474982924 4.4642533584903108e-08 -1.0909592652967684e-08 0.62500000000000000 0.31250000000000000 0.62499928226124368 0.31248281893223973 
0.68750000000000000 0.31250000000000000 0.0000000000000000 -6.9779073148824753e-07 -1.8828479335332714e-05 0.21056463326580369 4.0048410407500484e-08 -2.4950659880938174e-08 0.68750000000000000 0.31250000000000000 0.68749930220926847 0.31248117152066474 
0.75000000000000000 0.31250000000000000 0.0000000000000000 -6.5317490003732097e-07 -2.0394661396566379e-05 0.18630683662715308 3.7043467696326519e-08 -3.7113721133509933e-08 0.75000000000000000 0.31250000000000000 0.74999934682509994 0.31247960533860342 
0.81250000000000000 0.31250000000000000 0.0000000000000000 -5.8796139392827278e-07 -2.1872835899527381e-05 0.16329562890077212 3.6806847376556478e-08 -4.7460533942323410e-08 0.81250000000000000 0.31250000000000000 0.81249941203860609 0.31247812716410045 
0.87500000000000000 0.31250000000000000 0.0000000000000000 -5.0790513973400693e-07 -2.3257067955574410e-05 0.14032783941775065 3.5638721122086451e-08 -5.6524298747809059e-08 0.87500000000000000 0.31250000000000000 0.87499949209486017 0.31247674293204447 
0.93750000000000000 0.31250000000000000 0.0000000000000000 -4.2158291124410475e-07 -2.4541684316022038e-05 0.11712127491031747 4.6157110523703547e-08 -6.2095803874622970e-08 0.93750000000000000 0.31250000000000000 0.93749957841708886 0.31247545831568396 
1.0000000000000000 0.31250000000000000 0.0000000000000000 -3.4183426495064392e-07 -2.5720310724731933e-05 0.095645376069251872 0.0000000000000000 -6.9864463099682525e-08 1.0000000000000000 0.31250000000000000 0.99999965816573499 0.31247427968927527 
0.062500000000000000 0.37500000000000000 0.0000000000000000 -8.8488605507172993e-09 -1.2028366541715188e-06 0.39143443415777895 -8.0435729073456182e-08 2.6414104805106192e-07 0.062500000000000000 0.37500000000000000 0.062499991151139446 0.37499879716334578 
0.0000000000000000 0.37500000000000000 0.0000000000000000 0.0000000000000000 0.0000000000000000 0.33052966402608736 0.0000000000000000 2.8004253773611785e-07 0.0000000000000000 0.37500000000000000 0.0000000000000000 0.37500000000000000 
0.12500000000000000 0.37500000000000000 0.0000000000000000 -9.3148238875948463e-09 -2.6672599951531123e-06 0.41138121613879486 3.7507828959227931e-09 2.4060547214776577e-07 0.12500000000000000 0.37500000000000000 0.12499999068517610 0.37499733274000485 
0.18750000000000000 0.37500000000000000 0.0000000000000000 -1.3498617135530029e-08 -4.3305945890920363e-06 0.40839888566368526 1.7093393046518281e-08 2.0444750392042790e-07 0.18750000000000000 0.37500000000000000 0.18749998650138286 0.37499566940541090 
0.25000000000000000 0.37500000000000000 0.0000000000000000 -2.4552681819951953e-08 -6.1280078892654539e-06 0.39142152974993905 3.6004203582389293e-08 1.6413372467727776e-07 0.25000000000000000 0.37500000000000000 0.24999997544731814 0.37499387199211082 
0.31250000000000000 0.37500000000000000 0.0000000000000000 -3.8850280163222366e-08 -8.0016424493016249e-06 0.36622540010151194 4.3694453380182615e-08 1.2296404637426434e-07 0.31250000000000000 0.37500000000000000 0.31249996114971984 0.37499199835755070 
0.37500000000000000 0.37500000000000000 0.0000000000000000 -4.8906260806250784e-08 -9.9039875085674549e-06 0.33772880056170190 4.5416252130515127e-08 8.5966848898362677e-08 0.37500000000000000 0.37500000000000000 0.37499995109373918 0.37499009601249145 
0.43750000000000000 0.37500000000000000 0.0000000000000000 -4.6660594932801187e-08 -1.1798885116957429e-05 0.30982752678602443 4.2116257487806516e-08 5.5583952324459155e-08 0.43750000000000000 0.37500000000000000 0.43749995333940506 0.37498820111488307 
0.50000000000000000 0.37500000000000000 0.0000000000000000 -2.6380393560046990e-08 -1.3660546739224013e-05 0.28454654423417752 3.7345183523120140e-08 3.1117619073743458e-08 0.50000000000000000 0.37500000000000000 0.49999997361960652 0.37498633945326082 
0.56250000000000000 0.37500000000000000 0.0000000000000000 1.4333842593092151e-08 -1.5470907702703626e-05 0.26229515462263714 3.2732359700997297e-08 1.0718351896192833e-08 0.56250000000000000 0.37500000000000000 0.56250001433384256 0.37498452909229729 
0.62500000000000000 0.37500000000000000 0.0000000000000000 7.5661466111208188e-08 -1.7216541187776121e-05 0.24275500421263085 2.8901700626540897e-08 -6.8163998580293559e-09 0.62500000000000000 0.37500000000000000 0.62500007566146609 0.37498278345881220 
0.68750000000000000 0.37500000000000000 0.0000000000000000 1.5651459937942904e-07 -1.8886855418942761e-05 0.22534125242561062 2.6154607116051262e-08 -2.2254900637461228e-08 0.68750000000000000 0.37500000000000000 0.68750015651459939 0.37498111314458105 
0.75000000000000000 0.37500000000000000 0.0000000000000000 2.5499467223138207e-07 -2.0473002317128601e-05 0.20928525173688217 2.4680995151787834e-08 -3.6167165561999609e-08 0.75000000000000000 0.37500000000000000 0.75000025499467238 0.37497952699768294 
0.81250000000000000 0.37500000000000000 0.0000000000000000 3.6836642923507771e-07 -2.1967012255037159e-05 0.19359001916867705 2.5548314452714661e-08 -4.8867145795346626e-08 0.81250000000000000 0.37500000000000000 0.81250036836642925 0.37497803298774496 
0.87500000000000000 0.37500000000000000 0.0000000000000000 4.9257863297485969e-07 -2.3360850962352511e-05 0.17706845081010961 2.6071172755356041e-08 -6.0986321504580148e-08 0.87500000000000000 0.37500000000000000 0.87500049257863299 0.37497663914903767 