# For a description of the Tecplot format see the Tecplot User's guide.
#
Variables=x,y,z,s_u,s_v,s_p,x,y,ref_u,ref_v,u,v
Zone f=fepoint, n=4225, e=8192, et=quadrilateral, c=black
0.00000 0.00000 0.00000 0.0000000000000000 0.0000000000000000 3.3512535116256723 0.0000000000000000 0.0000000000000000 0.0000000000000000 0.0000000000000000 0.0000000000000000 0.0000000000000000 
0.015625000000000000 0.0000000000000000 0.0000000000000000 -6.9657728328139165e-07 -1.5105259190217254e-06 2.8069530346636231 7.4345856117999239e-06 0.0000000000000000 0.015625000000000000 0.0000000000000000 0.015624303422716720 -1.5105259190217254e-06 
0.015625000000000000 0.015625000000000000 0.0000000000000000 -1.8100258965874365e-07 -9.7329146365264727e-07 2.9308965872837285 4.6825957544180509e-06 1.2371740388234118e-06 0.015625000000000000 0.015625000000000000 0.015624818997410339 0.015624026708536349 
0.0000000000000000 0.015625000000000000 0.0000000000000000 0.0000000000000000 0.0000000000000000 3.1106724821550462 0.0000000000000000 4.2933202246628606e-06 0.0000000000000000 0.015625000000000000 0.0000000000000000 0.015625000000000000 
0.031250000000000000 0.0000000000000000 0.0000000000000000 -1.1496572714947493e-06 -2.3359023245753983e-06 2.1860998173319675 3.2547311732777720e-06 0.0000000000000000 0.031250000000000000 0.0000000000000000 0.031248850342728507 -2.3359023245753983e-06 
0.031250000000000000 0.015625000000000000 0.0000000000000000 -6.2003609860094464e-07 -1.9016948414109050e-06 2.3600457499447032 2.8846685046135464e-06 -1.4500063801077826e-06 0.031250000000000000 0.015625000000000000 0.031249379963901400 0.015623098305158590 
0.046875000000000000 0.0000000000000000 0.0000000000000000 -1.5164784083018385e-06 -2.9824588073829406e-06 1.8003908144639553 1.8965264132068719e-06 0.0000000000000000 0.046875000000000000 0.0000000000000000 0.046873483521591701 -2.9824588073829406e-06 
0.046875000000000000 0.015625000000000000 0.0000000000000000 -1.0066500379193695e-06 -2.6136352163612783e-06 1.9318342075599955 2.1730176644398734e-06 -9.4005780063473116e-07 0.046875000000000000 0.015625000000000000 0.046873993349962083 0.015622386364783638 
0.062500000000000000 0.0000000000000000 0.0000000000000000 -1.8384451557559308e-06 -3.5467040916419718e-06 1.5606816773280456 1.2195436749764538e-06 0.0000000000000000 0.062500000000000000 0.0000000000000000 0.062498161554844243 -3.5467040916419718e-06 
0.062500000000000000 0.015625000000000000 0.0000000000000000 -1.3521153585077719e-06 -3.2196918003524345e-06 1.6531350736074577 1.4023061043914063e-06 -7.4162315810953858e-07 0.062500000000000000 0.015625000000000000 0.062498647884641489 0.015621780308199648 
0.078125000000000000 0.0000000000000000 0.0000000000000000 -2.1322835114868736e-06 -4.0630489063745148e-06 1.3997965305540641 8.3770111157638035e-07 0.0000000000000000 0.078125000000000000 0.0000000000000000 0.078122867716488520 -4.0630489063745148e-06 
0.078125000000000000 0.015625000000000000 0.0000000000000000 -1.6666518798363183e-06 -3.7650905434140838e-06 1.4659888414240809 9.8001336325766109e-07 -5.3156362061516761e-07 0.078125000000000000 0.015625000000000000 0.078123333348120161 0.015621234909456586 
0.093750000000000000 0.0000000000000000 0.0000000000000000 -2.4060243146686574e-06 -4.5484648915011296e-06 1.2838058159223720 6.2329519952626176e-07 0.0000000000000000 0.093750000000000000 0.0000000000000000 0.093747593975685328 -4.5484648915011296e-06 
0.093750000000000000 0.015625000000000000 0.0000000000000000 -1.9570632582884967e-06 -4.2722459322627324e-06 1.3328327705832581 7.2734251158183927e-07 -3.9360899573128367e-07 0.093750000000000000 0.015625000000000000 0.093748042936741716 0.015620727754067738 
0.10937500000000000 0.0000000000000000 0.0000000000000000 -2.6640124671539875e-06 -5.0127172085108126e-06 1.1945097017122683 4.9460332557391425e-07 0.0000000000000000 0.10937500000000000 0.0000000000000000 0.10937233598753286 -5.0127172085108126e-06 
0.10937500000000000 0.015625000000000000 0.0000000000000000 -2.2279874095488507e-06 -4.7537917110974133e-06 1.2320671831429761 5.6977450296329666e-07 -2.9504017024145072e-07 0.10937500000000000 0.015625000000000000 0.10937277201259045 0.015620246208288903 
0.12500000000000000 0.0000000000000000 0.0000000000000000 -2.9088267157086693e-06 -5.4620024776081611e-06 1.1218893515900401 4.1299885742835424e-07 0.0000000000000000 0.12500000000000000 0.0000000000000000 0.12499709117328429 -5.4620024776081611e-06 
0.12500000000000000 0.015625000000000000 0.0000000000000000 -2.4826490167845610e-06 -5.2175193809537659e-06 1.1515489792254228 4.6790407967060935e-07 -2.2460967669618748e-07 0.12500000000000000 0.015625000000000000 0.12499751735098320 0.015619782480619045 
0.14062500000000000 0.0000000000000000 0.0000000000000000 -3.1421131758372658e-06 -5.9004993118632835e-06 1.0602132442049170 3.5861288171629095e-07 0.0000000000000000 0.14062500000000000 0.0000000000000000 0.14062185788682416 -5.9004993118632835e-06 
0.14062500000000000 0.015625000000000000 0.0000000000000000 -2.7233382957646090e-06 -5.6685401239964860e-06 1.0842673081687684 3.9916479413599808e-07 -1.7317133984324554e-07 0.14062500000000000 0.015625000000000000 0.14062227666170424 0.015619331459876004 
0.15625000000000000 0.0000000000000000 0.0000000000000000 -3.3649873488289139e-06 -6.3311428197089444e-06 1.0060525724792126 3.2067947272046195e-07 0.0000000000000000 0.15625000000000000 0.0000000000000000 0.15624663501265118 -6.3311428197089444e-06 
0.15625000000000000 0.015625000000000000 0.0000000000000000 -2.9517162009663676e-06 -6.1103615744020447e-06 1.0260226783421593 3.5093598636988805e-07 -1.3494609545697366e-07 0.15625000000000000 0.015625000000000000 0.15624704828379901 0.015618889638425599 
0.17187500000000000 0.0000000000000000 0.0000000000000000 -3.5782430113649685e-06 -6.7560525175253603e-06 0.95726447367727552 2.9315609616662635e-07 0.0000000000000000 0.17187500000000000 0.0000000000000000 0.17187142175698863 -6.7560525175253603e-06 
0.17187500000000000 0.015625000000000000 0.0000000000000000 -3.1690120866908122e-06 -6.5454702062199956e-06 0.97419657506009294 3.1590778265796193e-07 -1.0617141503866728e-07 0.17187500000000000 0.015625000000000000 0.17187183098791328 0.015618454529793780 
0.18750000000000000 0.0000000000000000 0.0000000000000000 -3.7824683901909184e-06 -7.1767877127137531e-06 0.91245413650582619 2.7249123221808869e-07 0.0000000000000000 0.18750000000000000 0.0000000000000000 0.18749621753160980 -7.1767877127137531e-06 
0.18750000000000000 0.015625000000000000 0.0000000000000000 -3.3761544564243245e-06 -6.9756694845899447e-06 0.92709052117643109 2.8967460132794446e-07 -8.4327706064008630e-08 0.18750000000000000 0.015625000000000000 0.18749662384554358 0.015618024330515410 
0.20312500000000000 0.0000000000000000 0.0000000000000000 -3.9781147255802972e-06 -7.5945088854676950e-06 0.87068068401541998 2.5650253845554580e-07 0.0000000000000000 0.20312500000000000 0.0000000000000000 0.20312102188527445 -7.5945088854676950e-06 
0.20312500000000000 0.015625000000000000 0.0000000000000000 -3.5738588539932324e-06 -7.4022875039266603e-06 0.88356283273470693 2.6948384789948327e-07 -6.7683400749501067e-08 0.20312500000000000 0.015625000000000000 0.20312142614114601 0.015617597712496073 
0.21875000000000000 0.0000000000000000 0.0000000000000000 -4.1655389130823547e-06 -8.0100843456141023e-06 0.83129018097102370 2.4379255364894591e-07 0.0000000000000000 0.21875000000000000 0.0000000000000000 0.21874583446108695 -8.0100843456141023e-06 
0.21875000000000000 0.015625000000000000 0.0000000000000000 -3.7626879250801566e-06 -7.8263106019636463e-06 0.84282226447829911 2.5355284942045562e-07 -5.5014456706973117e-08 0.21875000000000000 0.015625000000000000 0.21874623731207496 0.015617173689398037 
0.23437500000000000 0.0000000000000000 0.0000000000000000 -4.3450312646048965e-06 -8.4241633095525445e-06 0.79381702762182471 2.3343225381359832e-07 0.0000000000000000 0.23437500000000000 0.0000000000000000 0.23437065496873535 -8.4241633095525445e-06 
0.23437500000000000 0.015625000000000000 0.0000000000000000 -3.9430931360914491e-06 -8.2484727815830527e-06 0.80430644623018621 2.4068858099194695e-07 -4.5433624574690653e-08 0.23437500000000000 0.015625000000000000 0.23437105690686391 0.015616751527218418 
0.25000000000000000 0.0000000000000000 0.0000000000000000 -4.5168343016884323e-06 -8.8372274955591495e-06 0.75792344397568367 2.2478348523957699e-07 0.0000000000000000 0.25000000000000000 0.0000000000000000 0.24999548316569831 -8.8372274955591495e-06 
0.25000000000000000 0.015625000000000000 0.0000000000000000 -4.1154442234894991e-06 -8.6693175888440794e-06 0.76760756715953893 2.3006909950940099e-07 -3.8283278970556267e-08 0.25000000000000000 0.015625000000000000 0.24999588455577651 0.015616330682411155 
0.26562500000000000 0.0000000000000000 0.0000000000000000 -4.6811559008753839e-06 -9.2496284983248720e-06 0.72336095068797057 2.1739547158667059e-07 0.0000000000000000 0.26562500000000000 0.0000000000000000 0.26562031884409915 -9.2496284983248720e-06 
0.26562500000000000 0.015625000000000000 0.0000000000000000 -4.2800503117644860e-06 -9.0892421778171159e-06 0.73242528988966404 2.2111357714222242e-07 -3.3066334966769776e-08 0.26562500000000000 0.015625000000000000 0.26562071994968822 0.015615910757822182 
0.28125000000000000 0.0000000000000000 0.0000000000000000 -4.8381787392069748e-06 -9.6616154739839860e-06 0.68994501887726900 2.1094221787399250e-07 0.0000000000000000 0.28125000000000000 0.0000000000000000 0.28124516182126080 -9.6616154739839860e-06 
0.28125000000000000 0.015625000000000000 0.0000000000000000 -4.4371752865073524e-06 -9.5085294821002062e-06 0.69853591257302483 2.1340249925539529e-07 -2.9400505782850112e-08 0.28125000000000000 0.015625000000000000 0.28124556282471347 0.015615491470517899 
0.29687500000000000 0.0000000000000000 0.0000000000000000 -4.9880672307584490e-06 -1.0073356056585913e-05 0.65753788143867797 2.0518330267414614e-07 0.0000000000000000 0.29687500000000000 0.0000000000000000 0.29687001193276924 -1.0073356056585913e-05 
0.29687500000000000 0.015625000000000000 0.0000000000000000 -4.5870491441950504e-06 -9.9273722217308140e-06 0.66577156055477582 2.0662713447412335e-07 -2.6987244982407444e-08 0.29687500000000000 0.015625000000000000 0.29687041295085587 0.015615072627778269 
0.31250000000000000 0.0000000000000000 0.0000000000000000 -5.1309727102851189e-06 -1.0484952441624243e-05 0.62603656822359532 1.9993851176392644e-07 0.0000000000000000 0.31250000000000000 0.0000000000000000 0.31249486902728973 -1.0484952441624243e-05 
0.31250000000000000 0.015625000000000000 0.0000000000000000 -4.7298764807717686e-06 -1.0345891166427397e-05 0.63400576999426317 2.0055661727489208e-07 -2.5590179178597615e-08 0.31250000000000000 0.015625000000000000 0.31249527012351924 0.015614654108833573 
0.32812500000000000 0.0000000000000000 0.0000000000000000 -5.2670373607246669e-06 -1.0896453950472866e-05 0.59536438468346187 1.9507093797391663e-07 0.0000000000000000 0.32812500000000000 0.0000000000000000 0.32811973296263930 -1.0896453950472866e-05 
0.32812500000000000 0.015625000000000000 0.0000000000000000 -4.8658429148429957e-06 -1.0764149269558350e-05 0.60314326630704596 1.9501594213816566e-07 -2.5019827000703725e-08 0.32812500000000000 0.015625000000000000 0.32812013415708513 0.015614235850730440 
0.34375000000000000 0.0000000000000000 0.0000000000000000 -5.3963972211030048e-06 -1.1307866986746764e-05 0.56546472137994508 1.9047542133995650e-07 0.0000000000000000 0.34375000000000000 0.0000000000000000 0.34374460360277892 -1.1307866986746764e-05 
0.34375000000000000 0.015625000000000000 0.0000000000000000 -4.9951199985524922e-06 -1.1182162775246658e-05 0.57311256939529931 1.8987090351130584e-07 -2.5122575738129573e-08 0.34375000000000000 0.015625000000000000 0.34374500488000143 0.015613817837224752 
0.35937500000000000 0.0000000000000000 0.0000000000000000 -5.5191845091671129e-06 -1.1719163028528061e-05 0.53629647919278156 1.8607045410876462e-07 0.0000000000000000 0.35937500000000000 0.0000000000000000 0.35936948081549086 -1.1719163028528061e-05 
0.35937500000000000 0.015625000000000000 0.0000000000000000 -5.1178690062356973e-06 -1.1599910067578538e-05 0.54386054955571528 1.8501756861890402e-07 -2.5772599295722290e-08 0.35937500000000000 0.015625000000000000 0.35936988213099369 0.015613400089932422 
0.37500000000000000 0.0000000000000000 0.0000000000000000 -5.6355294258897691e-06 -1.2130285119669366e-05 0.50783063858446054 1.8179239184290592e-07 0.0000000000000000 0.37500000000000000 0.0000000000000000 0.37499436447057405 -1.2130285119669366e-05 
0.37500000000000000 0.015625000000000000 0.0000000000000000 -5.2342438800594530e-06 -1.2017338808718252e-05 0.51534835841338478 1.8037477623097922e-07 -2.6865843924429484e-08 0.37500000000000000 0.015625000000000000 0.37499476575611995 0.015612982661191281 
0.39062500000000000 0.0000000000000000 0.0000000000000000 -5.7455615636619115e-06 -1.2541153198829865e-05 0.48004765460068005 1.7759123502964694e-07 0.0000000000000000 0.39062500000000000 0.0000000000000000 0.39061925443843631 -1.2541153198829865e-05 
0.39062500000000000 0.015625000000000000 0.0000000000000000 -5.3443935353932799e-06 -1.2434371761659336e-05 0.48754834778050138 1.7587869751320498e-07 -2.8315490281931038e-08 0.39062500000000000 0.015625000000000000 0.39061965560646467 0.015612565628238340 
0.40625000000000000 0.0000000000000000 0.0000000000000000 -5.8494110086728105e-06 -1.2951668517629817e-05 0.45293545822711012 1.7342750254801753e-07 0.0000000000000000 0.40625000000000000 0.0000000000000000 0.40624415058899133 -1.2951668517629817e-05 
0.40625000000000000 0.015625000000000000 0.0000000000000000 -5.4484636752105284e-06 -1.2850911588722567e-05 0.46044171062902706 1.7147882883021342e-07 -3.0048484131503315e-08 0.40625000000000000 0.015625000000000000 0.40624455153632472 0.015612149088411275 
0.42187500000000000 0.0000000000000000 0.0000000000000000 -5.9472092058831316e-06 -1.3361717337247993e-05 0.42648791001363545 1.6926987862356235e-07 0.0000000000000000 0.42187500000000000 0.0000000000000000 0.42186905279079417 -1.3361717337247993e-05 
0.42187500000000000 0.015625000000000000 0.0000000000000000 -5.5465982249539021e-06 -1.3266844843265492e-05 0.43401665815811685 1.6713499630766040e-07 -3.2002850060140574e-08 0.42187500000000000 0.015625000000000000 0.42186945340177501 0.015611733155156736 
0.43750000000000000 0.0000000000000000 0.0000000000000000 -6.0390896391066471e-06 -1.3771174048057236e-05 0.40070359583105847 1.6509341727089610e-07 0.0000000000000000 0.43750000000000000 0.0000000000000000 0.43749396091036091 -1.3771174048057236e-05 
0.43750000000000000 0.015625000000000000 0.0000000000000000 -5.6389404721152378e-06 -1.3682045319462522e-05 0.40826700049472681 1.6281508690703042e-07 -3.4125585187423980e-08 0.43750000000000000 0.015625000000000000 0.43749436105952794 0.015611317954680537 
0.45312500000000000 0.0000000000000000 0.0000000000000000 -6.1251883670887149e-06 -1.4179903824266922e-05 0.37558488474685064 1.6087815511139116e-07 0.0000000000000000 0.45312500000000000 0.0000000000000000 0.45311887481163299 -1.4179903824266922e-05 
0.45312500000000000 0.015625000000000000 0.0000000000000000 -5.7256339750019812e-06 -1.4096376886943912e-05 0.38319103516611697 1.5849330924644746e-07 -3.6370986611210270e-08 0.45312500000000000 0.015625000000000000 0.45311927436602500 0.015610903623113057 
0.46875000000000000 0.0000000000000000 0.0000000000000000 -6.2056444478191566e-06 -1.4587764901488625e-05 0.35113718997714582 1.5660802804492479e-07 0.0000000000000000 0.46875000000000000 0.0000000000000000 0.46874379435555219 -1.4587764901488625e-05 
0.46875000000000000 0.015625000000000000 0.0000000000000000 -5.8068232905827193e-06 -1.4509695909211860e-05 0.35879067289690081 1.5414884646121586e-07 -3.8699305910543288e-08 0.46875000000000000 0.015625000000000000 0.46874419317670940 0.015610490304090787 
0.48437500000000000 0.0000000000000000 0.0000000000000000 -6.2806002767790808e-06 -1.4994610547246784e-05 0.32736838867325396 1.5227001754429851e-07 0.0000000000000000 0.48437500000000000 0.0000000000000000 0.48436871939972320 -1.4994610547246784e-05 
0.48437500000000000 0.015625000000000000 0.0000000000000000 -5.8826545604112116e-06 -1.4921853324144947e-05 0.33507074817903199 1.4976480350974275e-07 -4.1075651987923618e-08 0.48437500000000000 0.015625000000000000 0.48436911734543958 0.015610078146675853 
0.50000000000000000 0.0000000000000000 0.0000000000000000 -6.3502018598003113e-06 -1.5400290781041686e-05 0.30428836687035560 1.4785347326364016e-07 0.0000000000000000 0.50000000000000000 0.0000000000000000 0.49999364979814026 -1.5400290781041686e-05 
0.50000000000000000 0.015625000000000000 0.0000000000000000 -5.9532759853778985e-06 -1.5332696449539564e-05 0.31203847481666663 1.4532737903193615e-07 -4.3469083522293016e-08 0.50000000000000000 0.015625000000000000 0.49999404672401454 0.015609667303550458 
0.51562500000000000 0.0000000000000000 0.0000000000000000 -6.4145990372967192e-06 -1.5804653890459265e-05 0.28190866354254546 1.4334957339466442e-07 0.0000000000000000 0.51562500000000000 0.0000000000000000 0.51561858540096273 -1.5804653890459265e-05 
0.51562500000000000 0.015625000000000000 0.0000000000000000 -6.0188382136980181e-06 -1.5742070565112391e-05 0.28970301582626784 1.4082521125920869e-07 -4.5851846703591832e-08 0.51562500000000000 0.015625000000000000 0.51561898116178628 0.015609257929434890 
0.53125000000000000 0.0000000000000000 0.0000000000000000 -6.4739456735125387e-06 -1.6207547782174085e-05 0.26024219322760783 1.3875089473363046e-07 0.0000000000000000 0.53125000000000000 0.0000000000000000 0.53124352605432645 -1.6207547782174085e-05 
0.53125000000000000 0.015625000000000000 0.0000000000000000 -6.0794946615964365e-06 -1.6149820313711111e-05 0.26807514372250646 1.3624886134993670e-07 -4.8198724456020561e-08 0.53125000000000000 0.015625000000000000 0.53124392050533842 0.015608850179686289 
0.54687500000000000 0.0000000000000000 0.0000000000000000 -6.5283998219082998e-06 -1.6608821200908893e-05 0.23930303068767586 1.3405107214486228e-07 0.0000000000000000 0.54687500000000000 0.0000000000000000 0.54686847160017804 -1.6608821200908893e-05 
0.54687500000000000 0.015625000000000000 0.0000000000000000 -6.1354017822173822e-06 -1.6555790957946915e-05 0.24716697205113738 1.3159040756183632e-07 -5.0486471057151021e-08 0.54687500000000000 0.015625000000000000 0.54686886459821782 0.015608444209042055 
0.56250000000000000 0.0000000000000000 0.0000000000000000 -6.5781238757104617e-06 -1.7008324845063850e-05 0.21910624395064318 1.2924453289175932e-07 0.0000000000000000 0.56250000000000000 0.0000000000000000 0.56249342187612428 -1.7008324845063850e-05 
0.56250000000000000 0.015625000000000000 0.0000000000000000 -6.1867192950976957e-06 -1.6959829523568611e-05 0.22699174252442203 1.2684313115274753e-07 -5.2693311779794219e-08 0.56250000000000000 0.015625000000000000 0.56249381328070491 0.015608040170476430 
0.57812500000000000 0.0000000000000000 0.0000000000000000 -6.6232847108635175e-06 -1.7405912404498617e-05 0.19966776410070966 1.2432629576745003e-07 0.0000000000000000 0.57812500000000000 0.0000000000000000 0.57811837671528910 -1.7405912404498617e-05 
0.57812500000000000 0.015625000000000000 0.0000000000000000 -6.2336103858901264e-06 -1.7361785857282320e-05 0.20756365460220325 1.2200128062352006e-07 -5.4798491468247754e-08 0.57812500000000000 0.015625000000000000 0.57811876638961401 0.015607638214142716 
0.59375000000000000 0.0000000000000000 0.0000000000000000 -6.6640538270453635e-06 -1.7801441543613234e-05 0.18100428153131465 1.1929182864226431e-07 0.0000000000000000 0.59375000000000000 0.0000000000000000 0.59374333594617290 -1.7801441543613234e-05 
0.59375000000000000 0.015625000000000000 0.0000000000000000 -6.2762418837502185e-06 -1.7761513624123266e-05 0.18889772606514574 1.1705990544064806e-07 -5.6781859143537174e-08 0.59375000000000000 0.015625000000000000 0.59374372375811635 0.015607238486375878 
0.60937500000000000 0.0000000000000000 0.0000000000000000 -6.7006074909558764e-06 -1.8194774851268372e-05 0.16313315915268309 1.1413696111974047e-07 0.0000000000000000 0.60937500000000000 0.0000000000000000 0.60936829939250903 -1.8194774851268372e-05 
0.60937500000000000 0.015625000000000000 0.0000000000000000 -6.3147844217800947e-06 -1.8158871267725340e-05 0.17100967419176064 1.1201475420126740e-07 -5.8623478235836368e-08 0.60937500000000000 0.015625000000000000 0.60936868521557830 0.015606841128732273 
0.62500000000000000 0.0000000000000000 0.0000000000000000 -6.7331268846899639e-06 -1.8585780778094670e-05 0.14607235332134663 1.0885785195177009e-07 0.0000000000000000 0.62500000000000000 0.0000000000000000 0.62499326687311529 -1.8585780778094670e-05 
0.62500000000000000 0.015625000000000000 0.0000000000000000 -6.3494125840485329e-06 -1.8553722955780616e-05 0.15391580766618526 1.0686223557220671e-07 -6.0303253957799431e-08 0.62500000000000000 0.015625000000000000 0.62499365058741596 0.015606446277044219 
0.64062500000000000 0.0000000000000000 0.0000000000000000 -6.7617982605873464e-06 -1.8974334581287594e-05 0.12984033304917689 1.0345101372991583e-07 0.0000000000000000 0.64062500000000000 0.0000000000000000 0.64061823820173946 -1.8974334581287594e-05 
0.64062500000000000 0.015625000000000000 0.0000000000000000 -6.3803050408837436e-06 -1.8945939532554528e-05 0.13763291935110480 1.0159944360960986e-07 -6.1800570971040715e-08 0.64062500000000000 0.015625000000000000 0.64061861969495915 0.015606054060467445 
0.65625000000000000 0.0000000000000000 0.0000000000000000 -6.7868131024335312e-06 -1.9360319297017789e-05 0.11445598733451352 9.7913400566365079e-08 0.0000000000000000 0.65625000000000000 0.0000000000000000 0.65624321318689760 -1.9360319297017789e-05 
0.65625000000000000 0.015625000000000000 0.0000000000000000 -6.4076446722715195e-06 -1.9335399500475087e-05 0.12217816956246623 9.6224252461907729e-08 -6.3093935987654933e-08 0.65625000000000000 0.015625000000000000 0.65624359235532770 0.015605664600499525 
0.67187500000000000 0.0000000000000000 0.0000000000000000 -6.8083682911798812e-06 -1.9743626761078917e-05 0.099938509179651691 9.2242568147603666e-08 0.0000000000000000 0.67187500000000000 0.0000000000000000 0.67186819163170897 -1.9743626761078917e-05 
0.67187500000000000 0.015625000000000000 0.0000000000000000 -6.4316186771921328e-06 -1.9721990053528553e-05 0.10756894844473308 9.0735489205670477e-08 -6.4160621497903386e-08 0.67187500000000000 0.015625000000000000 0.67186856838132281 0.015605278009946473 
0.68750000000000000 0.0000000000000000 0.0000000000000000 -6.8266662713450782e-06 -2.0124158699338785e-05 0.086307242912137164 8.6436920076925768e-08 0.0000000000000000 0.68750000000000000 0.0000000000000000 0.68749317333372861 -2.0124158699338785e-05 
0.68750000000000000 0.015625000000000000 0.0000000000000000 -6.4524186644895759e-06 -2.0105608186479790e-05 0.093822704395857215 8.5133198009259674e-08 -6.4976308747015328e-08 0.68750000000000000 0.015625000000000000 0.68749354758133563 0.015604894391813520 
0.70312500000000000 0.0000000000000000 0.0000000000000000 -6.8419152118120588e-06 -2.0501827910957753e-05 0.073581478658682406 8.0496060160725958e-08 0.0000000000000000 0.70312500000000000 0.0000000000000000 0.70311815808478817 -2.0501827910957753e-05 
0.70312500000000000 0.015625000000000000 0.0000000000000000 -6.4702407182652670e-06 -2.0486161905824715e-05 0.080956723115579152 7.9419014179882947e-08 -6.5514730687164268e-08 0.70312500000000000 0.015625000000000000 0.70311852975928169 0.015604513838094176 
0.71875000000000000 0.0000000000000000 0.0000000000000000 -6.8543291516524349e-06 -2.0876559569211169e-05 0.061780174013430521 7.4421277834998913e-08 0.0000000000000000 0.71875000000000000 0.0000000000000000 0.71874314567084829 -2.0876559569211169e-05 
0.71875000000000000 0.015625000000000000 0.0000000000000000 -6.4852854276796848e-06 -2.0863571570930878e-05 0.068987838595894954 7.3596673330050556e-08 -6.5747319563168363e-08 0.71875000000000000 0.015625000000000000 0.71874351471457232 0.015604136428429069 
0.73437500000000000 0.0000000000000000 0.0000000000000000 -6.8641281176300048e-06 -2.1248292667117873e-05 0.050921577811938533 6.8216203819210776e-08 0.0000000000000000 0.73437500000000000 0.0000000000000000 0.73436813587188221 -2.1248292667117873e-05 
0.73437500000000000 0.015625000000000000 0.0000000000000000 -6.4977578672512414e-06 -2.1237771397102143e-05 0.057932053039573848 6.7672689179698804e-08 -6.5642869854302173e-08 0.73437500000000000 0.015625000000000000 0.73436850224213279 0.015603762228602895 
0.75000000000000000 0.0000000000000000 0.0000000000000000 -6.8715381947838024e-06 -2.1616981637952434e-05 0.041022724112438659 6.1887686298409619e-08 0.0000000000000000 0.75000000000000000 0.0000000000000000 0.74999312846180521 -2.1616981637952434e-05 
0.75000000000000000 0.015625000000000000 0.0000000000000000 -6.5078675090441641e-06 -2.1608711156398049e-05 0.047804037058014580 6.1657243663232650e-08 -6.5167236922656406e-08 0.75000000000000000 0.015625000000000000 0.74999349213249100 0.015603391288843601 
0.76562500000000000 0.0000000000000000 0.0000000000000000 -6.8767915244335251e-06 -2.1982598184091742e-05 0.032098755591309286 5.5446955120639762e-08 0.0000000000000000 0.76562500000000000 0.0000000000000000 0.76561812320847566 -2.1982598184091742e-05 
0.76562500000000000 0.015625000000000000 0.0000000000000000 -6.5158280422691416e-06 -2.1976358117022084e-05 0.038616474348153330 5.5565344810672502e-08 -6.4283107080894437e-08 0.76562500000000000 0.015625000000000000 0.76561848417195766 0.015603023641882980 
0.78125000000000000 0.0000000000000000 0.0000000000000000 -6.8801261943042080e-06 -2.2345133351438663e-05 0.024162024204058139 4.8911164007431973e-08 0.0000000000000000 0.78125000000000000 0.0000000000000000 0.78124311987380557 -2.2345133351438663e-05 
0.78125000000000000 0.015625000000000000 0.0000000000000000 -6.5218570684631329e-06 -2.2340699267988694e-05 0.030379206282034821 4.9418320603282265e-08 -6.2949899139973381e-08 0.78125000000000000 0.015625000000000000 0.78124347814293149 0.015602659300732012 
0.79687500000000000 0.0000000000000000 0.0000000000000000 -6.8817859720705827e-06 -2.2704599890645420e-05 0.017220903017879232 4.2305426986842919e-08 0.0000000000000000 0.79687500000000000 0.0000000000000000 0.79686811821402792 -2.2704599890645420e-05 
0.79687500000000000 0.015625000000000000 0.0000000000000000 -6.5261756311982791e-06 -2.2701743882474199e-05 0.023098121720793729 4.3245726562666008e-08 -6.1123897039333837e-08 0.79687500000000000 0.015625000000000000 0.79686847382436887 0.015602298256117525 
0.81250000000000000 0.0000000000000000 0.0000000000000000 -6.8820198147264184e-06 -2.3061034949974242e-05 0.011278227112863146 3.5665497109557893e-08 0.0000000000000000 0.81250000000000000 0.0000000000000000 0.81249311798018520 -2.3061034949974242e-05 
0.81250000000000000 0.015625000000000000 0.0000000000000000 -6.5290075277844418e-06 -2.3059526480316277e-05 0.016773726952818955 3.7087746966091468e-08 -5.8758772601732117e-08 0.81250000000000000 0.015625000000000000 0.81249347099247238 0.015601940473519682 
0.82812500000000000 0.0000000000000000 0.0000000000000000 -6.8810810591288914e-06 -2.3414503146670168e-05 0.0063292657819258233 2.9041257460506890e-08 0.0000000000000000 0.82812500000000000 0.0000000000000000 0.82811811891894083 -2.3414503146670168e-05 
0.82812500000000000 0.015625000000000000 0.0000000000000000 -6.5305783362546791e-06 -2.3414110256435905e-05 0.011399322984908859 3.0998139667629495e-08 -5.5806763886501386e-08 0.82812500000000000 0.015625000000000000 0.82811846942166378 0.015601585889743563 
0.84375000000000000 0.0000000000000000 0.0000000000000000 -6.8792261597283863e-06 -2.3765100061530063e-05 0.0023591180572687218 2.2501192088574966e-08 0.0000000000000000 0.84375000000000000 0.0000000000000000 0.84374312077384028 -2.3765100061530063e-05 
0.84375000000000000 0.015625000000000000 0.0000000000000000 -6.5311140736248542e-06 -2.3765591044944321e-05 0.0069587186087509438 2.5047701569780982e-08 -5.2220890318449759e-08 0.84375000000000000 0.015625000000000000 0.84374346888592633 0.015601234408955056 
0.85937500000000000 0.0000000000000000 0.0000000000000000 -6.8767127815658454e-06 -2.4112956189534377e-05 -0.00066056601831376448 1.6138022287612402e-08 0.0000000000000000 0.85937500000000000 0.0000000000000000 0.85936812328721845 -2.4112956189534377e-05 
0.85937500000000000 0.015625000000000000 0.0000000000000000 -6.5308393805940796e-06 -2.4114101882960435e-05 0.0034234330710638874 1.9328020571880643e-08 -4.7958961923259967e-08 0.85937500000000000 0.015625000000000000 0.85936846916061949 0.015600885898117039 
0.87500000000000000 0.0000000000000000 0.0000000000000000 -6.8737969699237484e-06 -2.4458241345757187e-05 -0.0027755901390783531 1.0075027734875769e-08 0.0000000000000000 0.87500000000000000 0.0000000000000000 0.87499312620303005 -2.4458241345757187e-05 
0.87500000000000000 0.015625000000000000 0.0000000000000000 -6.5299751025113206e-06 -2.4459818212046436e-05 0.00074941017345546825 1.3954801221703518e-08 -4.2989964843976182e-08 0.87500000000000000 0.015625000000000000 0.87499347002489747 0.015600540181787954 
0.89062500000000000 0.0000000000000000 0.0000000000000000 -6.8707289880454762e-06 -2.4801169447360425e-05 -0.0040538373959072603 4.4744910126928229e-09 0.0000000000000000 0.89062500000000000 0.0000000000000000 0.89061812927101192 -2.4801169447360425e-05 
0.89062500000000000 0.015625000000000000 0.0000000000000000 -6.5287351051720820e-06 -2.4802963686483383e-05 -0.0011265527076499632 9.0698057713560610e-09 -3.7305991524382775e-08 0.89062500000000000 0.015625000000000000 0.89061847126489468 0.015600197036313516 
0.90625000000000000 0.0000000000000000 0.0000000000000000 -6.8677472145331148e-06 -2.5142003408710469e-05 -0.0045902028861219690 -4.6127955507706761e-10 0.0000000000000000 0.90625000000000000 0.0000000000000000 0.90624313225278552 -2.5142003408710469e-05 