# For a description of the Tecplot format see the Tecplot User's guide.
#
Variables=x,y,z,s_u,s_v,s_p,x,y,ref_u,ref_v,u,v
Zone f=fepoint, n=9409, e=18432, et=quadrilateral, c=black
0.00000 0.00000 0.00000 0.0000000000000000 0.0000000000000000 3.7152279891628126 0.0000000000000000 0.0000000000000000 0.0000000000000000 0.0000000000000000 0.0000000000000000 0.0000000000000000 
0.010416666666666666 0.0000000000000000 0.0000000000000000 -5.5856342617210188e-07 -1.1948466821245584e-06 3.2206783371702401 9.0327674945917069e-06 0.0000000000000000 0.010416666666666666 0.0000000000000000 0.010416108103240495 -1.1948466821245584e-06 
0.010416666666666666 0.010416666666666666 0.0000000000000000 -1.5059579384827880e-07 -7.7585008968346269e-07 3.3043796340759797 6.3024193022615645e-06 2.2815306951078618e-06 0.010416666666666666 0.010416666666666666 0.010416516070872817 0.010415890816576982 
0.0000000000000000 0.010416666666666666 0.0000000000000000 0.0000000000000000 0.0000000000000000 3.4856738889329733 0.0000000000000000 4.9848986146637746e-06 0.0000000000000000 0.010416666666666666 0.0000000000000000 0.010416666666666666 
0.020833333333333332 0.0000000000000000 0.0000000000000000 -9.1383504216507433e-07 -1.8567554732713467e-06 2.6378397799462223 6.0074508735753552e-06 0.0000000000000000 0.020833333333333332 0.0000000000000000 0.020832419498291167 -1.8567554732713467e-06 
0.020833333333333332 0.010416666666666666 0.0000000000000000 -4.9584765669939378e-07 -1.5147093108666472e-06 2.7702429872778218 4.2367223538860427e-06 -9.2947901675476815e-07 0.020833333333333332 0.010416666666666666 0.020832837485676634 0.010415151957355802 
0.031250000000000000 0.0000000000000000 0.0000000000000000 -1.1965801256159515e-06 -2.3707084474540887e-06 2.2024325568816270 3.5711800268408864e-06 0.0000000000000000 0.031250000000000000 0.0000000000000000 0.031248803419874387 -2.3707084474540887e-06 
0.031250000000000000 0.010416666666666666 0.0000000000000000 -7.9710045990438590e-07 -2.0801652969882527e-06 2.3273768687318723 3.4745744816206314e-06 -8.3824707342383575e-07 0.031250000000000000 0.010416666666666666 0.031249202899540095 0.010414586501369678 
0.041666666666666664 0.0000000000000000 0.0000000000000000 -1.4426503660015443e-06 -2.8136618067238752e-06 1.9086694571873954 2.3685673856621598e-06 0.0000000000000000 0.041666666666666664 0.0000000000000000 0.041665224016300663 -2.8136618067238752e-06 
0.041666666666666664 0.010416666666666666 0.0000000000000000 -1.0650634729048756e-06 -2.5567165818913462e-06 2.0083736340970306 2.5305383372436869e-06 -9.2282766534017739e-07 0.041666666666666664 0.010416666666666666 0.041665601603193762 0.010414109950084774 
0.052083333333333336 0.0000000000000000 0.0000000000000000 -1.6665994827044867e-06 -3.2135322898799325e-06 1.7044302370418754 1.6457629135659231e-06 0.0000000000000000 0.052083333333333336 0.0000000000000000 0.052081666733850639 -3.2135322898799325e-06 
0.052083333333333336 0.010416666666666666 0.0000000000000000 -1.3088776459545252e-06 -2.9798608852743226e-06 1.7812927044964679 1.8302234586192872e-06 -7.5269331248882504e-07 0.052083333333333336 0.010416666666666666 0.052082024455687381 0.010413686805781391 
0.062500000000000000 0.0000000000000000 0.0000000000000000 -1.8754669422313633e-06 -3.5843781796219603e-06 1.5569445130725270 1.1985399625795128e-06 0.0000000000000000 0.062500000000000000 0.0000000000000000 0.062498124533057774 -3.5843781796219603e-06 
0.062500000000000000 0.010416666666666666 0.0000000000000000 -1.5344121104046259e-06 -3.3677872898480576e-06 1.6163201942399930 1.3557804542098131e-06 -6.1307651796380517e-07 0.062500000000000000 0.010416666666666666 0.062498465587889594 0.010413298879376818 
0.072916666666666671 0.0000000000000000 0.0000000000000000 -2.0730233907716930e-06 -3.9344168015779342e-06 1.4459270656818781 9.1561659975305203e-07 0.0000000000000000 0.072916666666666671 0.0000000000000000 0.072914593643275905 -3.9344168015779342e-06 
0.072916666666666671 0.010416666666666666 0.0000000000000000 -1.7455566076023483e-06 -3.7310141929848356e-06 1.4925044468034543 1.0414612669537059e-06 -4.9181056508605716e-07 0.072916666666666671 0.010416666666666666 0.072914921110059053 0.010412935652473683 
0.083333333333333329 0.0000000000000000 0.0000000000000000 -2.2614954364677746e-06 -4.2689312030966318e-06 1.3588421524081931 7.3079521205142660e-07 0.0000000000000000 0.083333333333333329 0.0000000000000000 0.083331071837896856 -4.2689312030966318e-06 
0.083333333333333329 0.010416666666666666 0.0000000000000000 -1.9450001745918325e-06 -4.0761619551145512e-06 1.3960722348177423 8.2821461225122905e-07 -3.9579415503591548e-07 0.083333333333333329 0.010416666666666666 0.083331388333158743 0.010412590504711551 
0.093750000000000000 0.0000000000000000 0.0000000000000000 -2.4423080949606169e-06 -4.5915398996067297e-06 1.2879080015039606 6.0555265080612448e-07 0.0000000000000000 0.093750000000000000 0.0000000000000000 0.093747557691905056 -4.5915398996067297e-06 
0.093750000000000000 0.010416666666666666 0.0000000000000000 -2.1346566590491746e-06 -4.4076576683329410e-06 1.3182340919294244 6.8068815279261194e-07 -3.2023885482230047e-07 0.093750000000000000 0.010416666666666666 0.093747865343340953 0.010412259008998335 
0.10416666666666667 0.0000000000000000 0.0000000000000000 -2.6164358950996178e-06 -4.9048395126129895e-06 1.2282149614209261 5.1766795133122687e-07 0.0000000000000000 0.10416666666666667 0.0000000000000000 0.10416405023077158 -4.9048395126129895e-06 
0.10416666666666667 0.010416666666666666 0.0000000000000000 -2.3159242395652929e-06 -4.7286061469211678e-06 1.2533526213208028 5.7598680401568574e-07 -2.6079127120103782e-07 0.10416666666666667 0.010416666666666666 0.10416435074242712 0.010411938060519745 
0.11458333333333333 0.0000000000000000 0.0000000000000000 -2.7845808044416102e-06 -5.2107593779426330e-06 1.1765910760904330 4.5394242205955848e-07 0.0000000000000000 0.11458333333333333 0.0000000000000000 0.11458054875252889 -5.2107593779426330e-06 
0.11458333333333333 0.010416666666666666 0.0000000000000000 -2.4898475513764859e-06 -5.0412682651978981e-06 1.1977550482155113 4.9966881460556981e-07 -2.1363138803239405e-07 0.11458333333333333 0.010416666666666666 0.11458084348578197 0.010411625398401471 
0.12500000000000000 0.0000000000000000 0.0000000000000000 -2.9472688700472040e-06 -5.5107720126058170e-06 1.1309297874061837 4.0635234666025702e-07 0.0000000000000000 0.12500000000000000 0.0000000000000000 0.12499705273112997 -5.5107720126058170e-06 
0.12500000000000000 0.010416666666666666 0.0000000000000000 -2.6572226629181460e-06 -5.3473405750013272e-06 1.1489949784570630 4.4260691032753444e-07 -1.7584814821888248e-07 0.12500000000000000 0.010416666666666666 0.12499734277733708 0.010411319326091665 
0.13541666666666666 0.0000000000000000 0.0000000000000000 -3.1049063029041504e-06 -5.8060249556521764e-06 1.0897910894255558 3.6988732427649577e-07 0.0000000000000000 0.13541666666666666 0.0000000000000000 0.13541356176036376 -5.8060249556521764e-06 
0.13541666666666666 0.010416666666666666 0.0000000000000000 -2.8186670508756380e-06 -5.6481269165590443e-06 1.1054006325181411 3.9893748315386208e-07 -1.4528251824236367e-07 0.13541666666666666 0.010416666666666666 0.13541384799961578 0.010411018539750107 
0.14583333333333334 0.0000000000000000 0.0000000000000000 -3.2578141233233697e-06 -6.0974271994945219e-06 1.0521623789908576 3.4132227481961585e-07 0.0000000000000000 0.14583333333333334 0.0000000000000000 0.14583007551921001 -6.0974271994945219e-06 
0.14583333333333334 0.010416666666666666 0.0000000000000000 -2.9746674094434200e-06 -5.9446484543992325e-06 1.0657990503954407 3.6481565414961997e-07 -1.2034294600837924e-07 0.14583333333333334 0.010416666666666666 0.14583035866592389 0.010410722018212267 
0.15625000000000000 0.0000000000000000 0.0000000000000000 -3.4062507710935545e-06 -6.3857080252871267e-06 1.0173126586890873 3.1851653664374023e-07 0.0000000000000000 0.15625000000000000 0.0000000000000000 0.15624659374922892 -6.3857080252871267e-06 
0.15625000000000000 0.010416666666666666 0.0000000000000000 -3.1256130170107597e-06 -6.2377169627785791e-06 1.0293461416765750 3.3766071206268172e-07 -9.9849565018726424e-08 0.15625000000000000 0.010416666666666666 0.15624687438698295 0.010410428949703886 
0.16666666666666666 0.0000000000000000 0.0000000000000000 -3.5504275555516713e-06 -6.6714583528265289e-06 0.98470170711987393 3.0000622007867602e-07 0.0000000000000000 0.16666666666666666 0.0000000000000000 0.16666311623911109 -6.6714583528265289e-06 
0.16666666666666666 0.010416666666666666 0.0000000000000000 -3.2718194735238890e-06 -6.5279853027224084e-06 0.99542022990654555 3.1569758357379756e-07 -8.2917034797390191e-08 0.16666666666666666 0.010416666666666666 0.16666339484719314 0.010410138681363944 
0.17708333333333334 0.0000000000000000 0.0000000000000000 -3.6905196118170244e-06 -6.9551606017950603e-06 0.95392207933954154 2.8476202067922168e-07 0.0000000000000000 0.17708333333333334 0.0000000000000000 0.17707964281372149 -6.9551606017950603e-06 
0.17708333333333334 0.010416666666666666 0.0000000000000000 -3.4135458853146388e-06 -6.8159832255644908e-06 0.96355395764076890 2.9767568897894338e-07 -6.8871471945097071e-08 0.17708333333333334 0.010416666666666666 0.17707991978744800 0.010409850683441102 
0.18750000000000000 0.0000000000000000 0.0000000000000000 -3.8266739017367681e-06 -7.2372107646984748e-06 0.92466109111742989 2.7204181030423411e-07 0.0000000000000000 0.18750000000000000 0.0000000000000000 0.18749617332609828 -7.2372107646984748e-06 
0.18750000000000000 0.010416666666666666 0.0000000000000000 -3.5510075086936587e-06 -7.1021434268980387e-06 0.93338969101414027 2.8269386454583024e-07 -5.7192362211310246e-08 0.18750000000000000 0.010416666666666666 0.18749644899249129 0.010409564523239769 
0.19791666666666666 0.0000000000000000 0.0000000000000000 -3.9590151941194778e-06 -7.5179350544985407e-06 0.89667524166409185 2.6129852077634045e-07 0.0000000000000000 0.19791666666666666 0.0000000000000000 0.19791270765147254 -7.5179350544985407e-06 
0.19791666666666666 0.010416666666666666 0.0000000000000000 -3.6843851928132083e-06 -7.3868209323190014e-06 0.90464958953734242 2.7008920428233999e-07 -4.7471972750128501e-08 0.19791666666666666 0.010416666666666666 0.19791298228147383 0.010409279845734349 
0.20833333333333334 0.0000000000000000 0.0000000000000000 -4.0876506188836418e-06 -7.7976026824469953e-06 0.86977256838873984 2.5212099975035555e-07 0.0000000000000000 0.20833333333333334 0.0000000000000000 0.20832924568271446 -7.7976026824469953e-06 
0.20833333333333334 0.010416666666666666 0.0000000000000000 -3.8138325308636325e-06 -7.6703078036966673e-06 0.87711502758557580 2.5936496134793415e-07 -3.9386748654665531e-08 0.20833333333333334 0.010416666666666666 0.20832951950080245 0.010408996358862969 
0.21875000000000000 0.0000000000000000 0.0000000000000000 -4.2126731888388981e-06 -8.0764358178867216e-06 0.84380018737222606 2.4419501157752748e-07 0.0000000000000000 0.21875000000000000 0.0000000000000000 0.21874578732681116 -8.0764358178867216e-06 
0.21875000000000000 0.010416666666666666 0.0000000000000000 -3.9394813460396971e-06 -7.9528444861442719e-06 0.85061211850635132 2.5014273537310151e-07 -3.2676893021946204e-08 0.21875000000000000 0.010416666666666666 0.21874606051865397 0.010408713822180520 
0.22916666666666666 0.0000000000000000 0.0000000000000000 -4.3341645585629096e-06 -8.3546174582365721e-06 0.81863530792376160 2.3727686336149444e-07 0.0000000000000000 0.22916666666666666 0.0000000000000000 0.22916233250210807 -8.3546174582365721e-06 
0.22916666666666666 0.010416666666666666 0.0000000000000000 -4.0614459504891774e-06 -8.2346286946548988e-06 0.82500131505791885 2.4213006177491849e-07 -2.7131572248686657e-08 0.22916666666666666 0.010416666666666666 0.22916260522071616 0.010408432037972011 
0.23958333333333334 0.0000000000000000 0.0000000000000000 -4.4521972098372055e-06 -8.6322977240528592e-06 0.79417862904898062 2.3117514833949185e-07 0.0000000000000000 0.23958333333333334 0.0000000000000000 0.23957888113612349 -8.6322977240528592e-06 
0.23958333333333334 0.010416666666666666 0.0000000000000000 -4.1798264881813037e-06 -8.5158224666936724e-06 0.80016979487683892 2.3509797640948042e-07 -2.2578033908493955e-08 0.23958333333333334 0.010416666666666666 0.23957915350684519 0.010408150844199972 
0.25000000000000000 0.0000000000000000 0.0000000000000000 -4.5668361998091839e-06 -8.9095989500742577e-06 0.77034940430367504 2.2573783907361667e-07 0.0000000000000000 0.25000000000000000 0.0000000000000000 0.24999543316380021 -8.9095989500742577e-06 
0.25000000000000000 0.010416666666666666 0.0000000000000000 -4.2947115853296861e-06 -8.7965578260573593e-06 0.77602578948809475 2.2886517921199955e-07 -1.8873485501158384e-08 0.25000000000000000 0.010416666666666666 0.24999570528841467 0.010407870108840608 
0.26041666666666669 0.0000000000000000 0.0000000000000000 -4.6781405715247124e-06 -9.1866198439077037e-06 0.74708169814799141 2.2084298935955315e-07 0.0000000000000000 0.26041666666666669 0.0000000000000000 0.26041198852609515 -9.1866198439077037e-06 
0.26041666666666669 0.010416666666666666 0.0000000000000000 -4.4061804712974579e-06 -9.0769413804325815e-06 0.75249429627221198 2.2328665406109706e-07 -1.5898951272983823e-08 0.26041666666666669 0.010416666666666666 0.26041226048619537 0.010407589725286234 
0.27083333333333331 0.0000000000000000 0.0000000000000000 -4.7861645008621419e-06 -9.4634389142993883e-06 0.72432150819257812 2.1639192278873374e-07 0.0000000000000000 0.27083333333333331 0.0000000000000000 0.27082854716883248 -9.4634389142993883e-06 
0.27083333333333331 0.010416666666666666 0.0000000000000000 -4.5143046901456016e-06 -9.3570580899229242e-06 0.72951379198988375 2.1824535704210157e-07 -1.3554567695718899e-08 0.27083333333333331 0.010416666666666666 0.27082881902864314 0.010407309608576743 
0.28125000000000000 0.0000000000000000 0.0000000000000000 -4.8909582355921426e-06 -9.7401173211307020e-06 0.70202452660921344 2.1230416805838605e-07 0.0000000000000000 0.28125000000000000 0.0000000000000000 0.28124510904176442 -9.7401173211307020e-06 
0.28125000000000000 0.010416666666666666 0.0000000000000000 -4.6191494924784346e-06 -9.6369743836935296e-06 0.70703368323765725 2.1364605597036417e-07 -1.1755940227199848e-08 0.28125000000000000 0.010416666666666666 0.28124538085050754 0.010407029692282972 
0.29166666666666669 0.0000000000000000 0.0000000000000000 -4.9925688689961290e-06 -1.0016701263151871e-05 0.68015437999551498 2.0851364254729089e-07 0.0000000000000000 0.29166666666666669 0.0000000000000000 0.29166167409779770 -1.0016701263151871e-05 
0.29166666666666669 0.010416666666666666 0.0000000000000000 -4.7207749752178790e-06 -9.9167407587280181e-06 0.68501230690417614 2.0941070329298595e-07 -1.0431293294375483e-08 0.29166666666666669 0.010416666666666666 0.29166194589169153 0.010406749925907939 
0.30208333333333331 0.0000000000000000 0.0000000000000000 -5.0910409806950702e-06 -1.0293223992895734e-05 0.65868123193880634 2.0496574172551524e-07 0.0000000000000000 0.30208333333333331 0.0000000000000000 0.30207824229235264 -1.0293223992895734e-05 
0.30208333333333331 0.010416666666666666 0.0000000000000000 -4.8192370208587876e-06 -1.0196393963251291e-05 0.66341534641629674 2.0547491848773414e-07 -9.5192202289984738e-09 0.30208333333333331 0.010416666666666666 0.30207851409631248 0.010406470272703415 
0.31250000000000000 0.0000000000000000 0.0000000000000000 -5.1864171700588462e-06 -1.0569707528426626e-05 0.63758066369510180 2.0161509497122475e-07 0.0000000000000000 0.31250000000000000 0.0000000000000000 0.31249481358282993 -1.0569707528426626e-05 
0.31250000000000000 0.010416666666666666 0.0000000000000000 -4.9145880758903083e-06 -1.0475958844153719e-05 0.64221456599315208 2.0178528426165285e-07 -8.9668919103323217e-09 0.31250000000000000 0.010416666666666666 0.31249508541192411 0.010406190707822512 
0.32291666666666669 0.0000000000000000 0.0000000000000000 -5.2787385020884176e-06 -1.0846164116673894e-05 0.61683277037128825 1.9842381771471412e-07 0.0000000000000000 0.32291666666666669 0.0000000000000000 0.32291138792816459 -1.0846164116673894e-05 
0.32291666666666669 0.010416666666666666 0.0000000000000000 -5.0068777992193289e-06 -1.0755449920396095e-05 0.62138679071921155 1.9829724708936485e-07 -8.7286195465246224e-09 0.32291666666666669 0.010416666666666666 0.32291165978886749 0.010405911216746271 
0.33333333333333331 0.0000000000000000 0.0000000000000000 -5.3680448815033228e-06 -1.1122597491755316e-05 0.59642142571591827 1.9536013740753494e-07 0.0000000000000000 0.33333333333333331 0.0000000000000000 0.33332796528845182 -1.1122597491755316e-05 
0.33333333333333331 0.010416666666666666 0.0000000000000000 -5.0961536047696330e-06 -1.1034872731256442e-05 0.60091307850095244 1.9497347163460108e-07 -8.7646932851013481e-09 0.33333333333333331 0.010416666666666666 0.33332823717972854 0.010405631793935409 
0.34375000000000000 0.0000000000000000 0.0000000000000000 -5.4543753675801235e-06 -1.1399003962977675e-05 0.57633368001988983 1.9239730388430154e-07 0.0000000000000000 0.34375000000000000 0.0000000000000000 0.34374454562463241 -1.1399003962977675e-05 
0.34375000000000000 0.010416666666666666 0.0000000000000000 -5.1824611173678726e-06 -1.1314224998263631e-05 0.58077804316912685 1.9178253957794716e-07 -9.0404373937505337e-09 0.34375000000000000 0.010416666666666666 0.34374481753888264 0.010405352441668403 
0.35416666666666669 0.0000000000000000 0.0000000000000000 -5.5377684398259970e-06 -1.1675373360443418e-05 0.55655926398967626 1.8951271817227837e-07 0.0000000000000000 0.35416666666666669 0.0000000000000000 0.35416112889822687 -1.1675373360443418e-05 
0.35416666666666669 0.010416666666666666 0.0000000000000000 -5.2658445571470689e-06 -1.1593497631942998e-05 0.56096929764880621 1.8869791231009287e-07 -9.5254367319771923e-09 0.35416666666666669 0.010416666666666666 0.35416140082210962 0.010405073169034723 
0.36458333333333331 0.0000000000000000 0.0000000000000000 -5.6182622226555226e-06 -1.1951689860911427e-05 0.53709017765946598 1.8668723049977064e-07 0.0000000000000000 0.36458333333333331 0.0000000000000000 0.36457771507111064 -1.1951689860911427e-05 
0.36458333333333331 0.010416666666666666 0.0000000000000000 -5.3463470646993540e-06 -1.1872675608500510e-05 0.54147699326962373 1.8569709755261261e-07 -1.0192899615499730e-08 0.36458333333333331 0.010416666666666666 0.36457798698626864 0.010404793991058163 
0.37500000000000000 0.0000000000000000 0.0000000000000000 -5.6958946757358872e-06 -1.2227932712400958e-05 0.51792034805678111 1.8390457049881837e-07 0.0000000000000000 0.37500000000000000 0.0000000000000000 0.37499430410532425 -1.2227932712400958e-05 
0.37500000000000000 0.010416666666666666 0.0000000000000000 -5.4240109768735748e-06 -1.2151738736871330e-05 0.52229343663623928 1.8276097490618702e-07 -1.1019129948343076e-08 0.37500000000000000 0.010416666666666666 0.37499457598902314 0.010404514927929794 
0.38541666666666669 0.0000000000000000 0.0000000000000000 -5.7707037554786802e-06 -1.2504076872730667e-05 0.49904534285113406 1.8115088142489158e-07 0.0000000000000000 0.38541666666666669 0.0000000000000000 0.38541089596291123 -1.2504076872730667e-05 
0.38541666666666669 0.010416666666666666 0.0000000000000000 -5.4988780612799672e-06 -1.2430662332849949e-05 0.50341276951478908 1.7987324622995050e-07 -1.1983087418096027e-08 0.38541666666666669 0.010416666666666666 0.38541116778860540 0.010404236004333815 
0.39583333333333331 0.0000000000000000 0.0000000000000000 -5.8427275522120479e-06 -1.2780093574554140e-05 0.48046212989650788 1.7841433687079873e-07 0.0000000000000000 0.39583333333333331 0.0000000000000000 0.39582749060578110 -1.2780093574554140e-05 
0.39583333333333331 0.010416666666666666 0.0000000000000000 -5.5709897161148001e-06 -1.2709417814072976e-05 0.48483070026429259 1.7701998478095813e-07 -1.3066019006899746e-08 0.39583333333333331 0.010416666666666666 0.39582776234361722 0.010403957248852595 
0.40625000000000000 0.0000000000000000 0.0000000000000000 -5.9120044068106804e-06 -1.3055950827341227e-05 0.46216887463877449 1.7568482335468943e-07 0.0000000000000000 0.40625000000000000 0.0000000000000000 0.40624408799559325 -1.3055950827341227e-05 
0.40625000000000000 0.010416666666666666 0.0000000000000000 -5.6403871407642640e-06 -1.2987973227270112e-05 0.46654427770053486 1.7418926305376743e-07 -1.4251148571268157e-08 0.40625000000000000 0.010416666666666666 0.40624435961285926 0.010403678693439396 
0.41666666666666669 0.0000000000000000 0.0000000000000000 -5.9785730099512015e-06 -1.3331613865049794e-05 0.44416476895481433 1.7295367584807828e-07 0.0000000000000000 0.41666666666666669 0.0000000000000000 0.41666068809365675 -1.3331613865049794e-05 
0.41666666666666669 0.010416666666666666 0.0000000000000000 -5.7071114817223747e-06 -1.3266293717304674e-05 0.44855170010286843 1.7137084376041149e-07 -1.5523413894342668e-08 0.41666666666666669 0.010416666666666666 0.41666095955518495 0.010403400372949361 
0.42708333333333331 0.0000000000000000 0.0000000000000000 -6.0424724866655965e-06 -1.3607045546849931e-05 0.42644988623398472 1.7021345617745494e-07 0.0000000000000000 0.42708333333333331 0.0000000000000000 0.42707729086084667 -1.3607045546849931e-05 
0.42708333333333331 0.010416666666666666 0.0000000000000000 -5.7712039576120285e-06 -1.3544341945994702e-05 0.43085215349445694 1.6855592179562887e-07 -1.6869242717649927e-08 0.42708333333333331 0.010416666666666666 0.42707756212937570 0.010403122324720670 
0.43750000000000000 0.0000000000000000 0.0000000000000000 -6.1037424684608198e-06 -1.3882206717135683e-05 0.40902505848804482 1.6745776632739445e-07 0.0000000000000000 0.43750000000000000 0.0000000000000000 0.43749389625753149 -1.3882206717135683e-05 
0.43750000000000000 0.010416666666666666 0.0000000000000000 -5.8327059664928841e-06 -1.3822078467461819e-05 0.41344567443824704 1.6573690765087116e-07 -1.8276360906213151e-08 0.43750000000000000 0.010416666666666666 0.43749416729403351 0.010402844588199204 
0.44791666666666669 0.0000000000000000 0.0000000000000000 -6.1624231549401587e-06 -1.4157056530136219e-05 0.39189177204611148 1.6468109037326166e-07 0.0000000000000000 0.44791666666666669 0.0000000000000000 0.44791050424351181 -1.4157056530136219e-05 
0.44791666666666669 0.010416666666666666 0.0000000000000000 -5.8916591781453371e-06 -1.4099462065740003e-05 0.39633303346797649 1.6290724472501531e-07 -1.9733627184068998e-08 0.44791666666666669 0.010416666666666666 0.44791077500748860 0.010402567204600926 
0.45833333333333331 0.0000000000000000 0.0000000000000000 -6.2185553665864959e-06 -1.4431552743681110e-05 0.37505207900184384 1.6187866004662694e-07 0.0000000000000000 0.45833333333333331 0.0000000000000000 0.45832711477796667 -1.4431552743681110e-05 
0.45833333333333331 0.010416666666666666 0.0000000000000000 -5.9481056136130229e-06 -1.4376450059545456e-05 0.37951563596816346 1.6006125455244589e-07 -2.1230889910311660e-08 0.45833333333333331 0.010416666666666666 0.45832738522771971 0.010402290216607121 
0.46875000000000000 0.0000000000000000 0.0000000000000000 -6.2721805901381155e-06 -1.4705651986048838e-05 0.35850852206749195 1.5904633991612206e-07 0.0000000000000000 0.46875000000000000 0.0000000000000000 0.46874372781940982 -1.4705651986048838e-05 
0.46875000000000000 0.010416666666666666 0.0000000000000000 -6.0020877139499689e-06 -1.4652998578424911e-05 0.36299543787063887 1.5719400515638527e-07 -2.2758862190077156e-08 0.46875000000000000 0.010416666666666666 0.46874399791228605 0.010402013668088241 
0.47916666666666669 0.0000000000000000 0.0000000000000000 -6.3233410177949761e-06 -1.4979309999311220e-05 0.34226407087961092 1.5618052900722609e-07 0.0000000000000000 0.47916666666666669 0.0000000000000000 0.47916034332564889 -1.4979309999311220e-05 
0.47916666666666669 0.010416666666666666 0.0000000000000000 -6.0536483998382076e-06 -1.4929062813935799e-05 0.34677487397826084 1.5430119869927163e-07 -2.4309012259490863e-08 0.47916666666666669 0.010416666666666666 0.47916061301826679 0.010401737603852731 
0.48958333333333331 0.0000000000000000 0.0000000000000000 -6.3720795813303512e-06 -1.5252481862157994e-05 0.32632206811475228 1.5327807625291553e-07 0.0000000000000000 0.48958333333333331 0.0000000000000000 0.48957696125375200 -1.5252481862157994e-05 
0.48958333333333331 0.010416666666666666 0.0000000000000000 -6.1028311235066364e-06 -1.5204597249045696e-05 0.33085679708204385 1.5137907534830008e-07 -2.5873466631369891e-08 0.48958333333333331 0.010416666666666666 0.48957723050220986 0.010401462069417623 
0.50000000000000000 0.0000000000000000 0.0000000000000000 -6.4184399820440828e-06 -1.5525122194830753e-05 0.31068618402699560 1.5033620769350504e-07 0.0000000000000000 0.50000000000000000 0.0000000000000000 0.49999358156001800 -1.5525122194830753e-05 
0.50000000000000000 0.010416666666666666 0.0000000000000000 -6.1496799141834177e-06 -1.5479555868552321e-05 0.31524442632507604 1.4842433085551377e-07 -2.7444923887591201e-08 0.50000000000000000 0.010416666666666666 0.49999385032008581 0.010401187110798113 
0.51041666666666663 0.0000000000000000 0.0000000000000000 -6.4624667173741487e-06 -1.5797185348499317e-05 0.29536037822304689 1.4735246375266341e-07 0.0000000000000000 0.51041666666666663 0.0000000000000000 0.51041020419994920 -1.5797185348499317e-05 
0.51041666666666663 0.010416666666666666 0.0000000000000000 -6.1942394181454207e-06 -1.5753892353004857e-05 0.29994130349833587 1.4543404585749093e-07 -2.9016577376600369e-08 0.51041666666666663 0.010416666666666666 0.51041047242724857 0.010400912774313662 
0.52083333333333337 0.0000000000000000 0.0000000000000000 -6.5042051048799904e-06 -1.6068625581169511e-05 0.28034886765612516 1.4432464520726817e-07 0.0000000000000000 0.52083333333333337 0.0000000000000000 0.52082682912822853 -1.6068625581169511e-05 
0.52083333333333337 0.010416666666666666 0.0000000000000000 -6.2365549342829945e-06 -1.6027560258342717e-05 0.28495125614062894 1.4240562525485292e-07 -3.0582045336994612e-08 0.52083333333333337 0.010416666666666666 0.52082709677839911 0.010400639106408323 
0.53125000000000000 0.0000000000000000 0.0000000000000000 -6.5437013042203829e-06 -1.6339397222006861e-05 0.26565609995323031 1.4125076675968026e-07 0.0000000000000000 0.53125000000000000 0.0000000000000000 0.53124345629869574 -1.6339397222006861e-05 
0.53125000000000000 0.010416666666666666 0.0000000000000000 -6.2766724459731302e-06 -1.6300513183247341e-05 0.27027836646660558 1.3933674636589616e-07 -3.2135307204201073e-08 0.53125000000000000 0.010416666666666666 0.53124372332755410 0.010400366153483416 
0.54166666666666663 0.0000000000000000 0.0000000000000000 -6.5810023376683154e-06 -1.6609454825793577e-05 0.25128673129732393 1.3812901733745146e-07 0.0000000000000000 0.54166666666666663 0.0000000000000000 0.54166008566432899 -1.6609454825793577e-05 
0.54166666666666663 0.010416666666666666 0.0000000000000000 -6.3146386499439991e-06 -1.6572704926022590e-05 0.25592694526849857 1.3622531480269799e-07 -3.3670645043381712e-08 0.54166666666666663 0.010416666666666666 0.54166035202801666 0.010400093961740643 
0.55208333333333337 0.0000000000000000 0.0000000000000000 -6.6161561096336308e-06 -1.6878753319097620e-05 0.23724560817161500 1.3495772639590923e-07 0.0000000000000000 0.55208333333333337 0.0000000000000000 0.55207671717722373 -1.6878753319097620e-05 
0.55208333333333337 0.010416666666666666 0.0000000000000000 -6.3505009827167017e-06 -1.6844089632669695e-05 0.24190151003475410 1.3306942722778121e-07 -3.5182589200889483e-08 0.55208333333333337 0.010416666666666666 0.55207698283235063 0.010399822577033995 
0.56250000000000000 0.0000000000000000 0.0000000000000000 -6.6492114255984636e-06 -1.7147248139620617e-05 0.22353775233938769 1.3173533572810542e-07 0.0000000000000000 0.56250000000000000 0.0000000000000000 0.56249335078857443 -1.7147248139620617e-05 
0.56250000000000000 0.010416666666666666 0.0000000000000000 -6.3843076451229177e-06 -1.7114621937703177e-05 0.22820676660580433 1.2986734033895617e-07 -3.6665867393659415e-08 0.56250000000000000 0.010416666666666666 0.56249361569235490 0.010399552044728963 
0.57291666666666663 0.0000000000000000 0.0000000000000000 -6.6802180108101708e-06 -1.7414895370101327e-05 0.21016834848417040 1.2846037631025556e-07 0.0000000000000000 0.57291666666666663 0.0000000000000000 0.57290998644865587 -1.7414895370101327e-05 
0.57291666666666663 0.010416666666666666 0.0000000000000000 -6.4161076253176478e-06 -1.7384257099157432e-05 0.21484759374603976 1.2661744559302458e-07 -3.8115356569199095e-08 0.57291666666666663 0.010416666666666666 0.57291025055904132 0.010399282409567509 
0.58333333333333337 0.0000000000000000 0.0000000000000000 -6.7092265290194700e-06 -1.7681651868080638e-05 0.19714273397181512 1.2513144996222479e-07 0.0000000000000000 0.58333333333333337 0.0000000000000000 0.58332662410680436 -1.7681651868080638e-05 
0.58333333333333337 0.010416666666666666 0.0000000000000000 -6.4459507206327494e-06 -1.7652951129158536e-05 0.20182903005560249 1.2331824929857540e-07 -3.9526036916099323e-08 0.58333333333333337 0.010416666666666666 0.58332688738261274 0.010399013715537508 
0.59375000000000000 0.0000000000000000 0.0000000000000000 -6.7362886014967406e-06 -1.7947475392780835e-05 0.18446639021947620 1.2174721560741119e-07 0.0000000000000000 0.59375000000000000 0.0000000000000000 0.59374326371139852 -1.7947475392780835e-05 
0.59375000000000000 0.010416666666666666 0.0000000000000000 -6.4738875585476262e-06 -1.7920660921379926e-05 0.18915626267523966 1.1996835786412637e-07 -4.0892947530548438e-08 0.59375000000000000 0.010416666666666666 0.59374352611244141 0.010398746005745287 
0.60416666666666663 0.0000000000000000 0.0000000000000000 -6.7614568265059136e-06 -1.8212324730314342e-05 0.17214493516913695 1.1830638007868069e-07 0.0000000000000000 0.60416666666666663 0.0000000000000000 0.60415990520984009 -1.8212324730314342e-05 