# For a description of the Tecplot format see the Tecplot User's guide.
#
Variables=x,y,z,s_u,s_v,s_p,x,y,ref_u,ref_v,u,v
Zone f=fepoint, n=289, e=512, et=quadrilateral, c=black
0.00000 0.00000 0.00000 0.0000000000000000 0.0000000000000000 1.8944019952466329 0.0000000000000000 0.0000000000000000 0.0000000000000000 0.0000000000000000 0.0000000000000000 0.0000000000000000 
0.062500000000000000 0.0000000000000000 0.0000000000000000 -1.5596985460013501e-06 -3.2393034892877450e-06 1.5250602100100428 1.3434660583249282e-06 0.0000000000000000 0.062500000000000000 0.0000000000000000 0.062498440301453996 -3.2393034892877450e-06 
0.062500000000000000 0.062500000000000000 0.0000000000000000 -3.7016456248807992e-07 -2.0498509740942996e-06 1.5663560128443417 7.8183611727392327e-07 3.7119783856068677e-07 0.062500000000000000 0.062500000000000000 0.062499629835437505 0.062497950149025906 
0.0000000000000000 0.062500000000000000 0.0000000000000000 0.0000000000000000 0.0000000000000000 1.6431171136069613 0.0000000000000000 1.0605641921497946e-06 0.0000000000000000 0.062500000000000000 0.0000000000000000 0.062500000000000000 
0.12500000000000000 0.0000000000000000 0.0000000000000000 -2.6156550911166742e-06 -5.1419812714855028e-06 1.1087485136292226 4.5885171261666071e-07 0.0000000000000000 0.12500000000000000 0.0000000000000000 0.12499738434490888 -5.1419812714855028e-06 
0.12500000000000000 0.062500000000000000 0.0000000000000000 -1.3085799013472211e-06 -4.2053342692905009e-06 1.1885459987911202 4.6823596365829636e-07 -1.5708083867427282e-07 0.12500000000000000 0.062500000000000000 0.12499869142009866 0.062495794665730707 
0.18750000000000000 0.0000000000000000 0.0000000000000000 -3.4588499944036918e-06 -6.8032682658065076e-06 0.86234750584452691 3.2083361408965370e-07 0.0000000000000000 0.18750000000000000 0.0000000000000000 0.18749654115000561 -6.8032682658065076e-06 
0.18750000000000000 0.062500000000000000 0.0000000000000000 -2.1082042584158220e-06 -6.0425585406741793e-06 0.91279577503278808 3.5584595757196238e-07 -3.3787862211761162e-08 0.18750000000000000 0.062500000000000000 0.18749789179574158 0.062493957441459323 
0.25000000000000000 0.0000000000000000 0.0000000000000000 -4.1560610598141107e-06 -8.3997177347472410e-06 0.69483691541835402 2.3695483836345619e-07 0.0000000000000000 0.25000000000000000 0.0000000000000000 0.24999584393894017 -8.3997177347472410e-06 
0.25000000000000000 0.062500000000000000 0.0000000000000000 -2.7804550983667838e-06 -7.7724596060847761e-06 0.72861957821333601 2.4124371758534989e-07 -2.0776927384380840e-08 0.25000000000000000 0.062500000000000000 0.24999721954490164 0.062492227540393915 
0.31250000000000000 0.0000000000000000 0.0000000000000000 -4.7327689223197697e-06 -9.9771085390064835e-06 0.56512152726754683 1.9532352096503995e-07 0.0000000000000000 0.31250000000000000 0.0000000000000000 0.31249526723107768 -9.9771085390064835e-06 
0.31250000000000000 0.062500000000000000 0.0000000000000000 -3.3406755058955790e-06 -9.4611062927764144e-06 0.59217290317638771 1.9310355142337009e-07 -1.3131782562264765e-08 0.31250000000000000 0.062500000000000000 0.31249665932449405 0.062490538893707225 
0.37500000000000000 0.0000000000000000 0.0000000000000000 -5.2027381673768181e-06 -1.1546250004567381e-05 0.45656345352545985 1.6987997637042662e-07 0.0000000000000000 0.37500000000000000 0.0000000000000000 0.37499479726183260 -1.1546250004567381e-05 
0.37500000000000000 0.062500000000000000 0.0000000000000000 -3.8012434725628638e-06 -1.1127612348685269e-05 0.48171118451132006 1.6213424164582412e-07 -1.7707226518171185e-08 0.37500000000000000 0.062500000000000000 0.37499619875652751 0.062488872387651322 
0.43750000000000000 0.0000000000000000 0.0000000000000000 -5.5761493256637985e-06 -1.3105399198300715e-05 0.36246051814451774 1.5000163346962862e-07 0.0000000000000000 0.43750000000000000 0.0000000000000000 0.43749442385067433 -1.3105399198300715e-05 
0.43750000000000000 0.062500000000000000 0.0000000000000000 -4.1726571732843450e-06 -1.2773479239122922e-05 0.38770568088889162 1.4002978590353937e-07 -2.6379752926465529e-08 0.43750000000000000 0.062500000000000000 0.43749582734282672 0.062487226520760879 
0.50000000000000000 0.0000000000000000 0.0000000000000000 -5.8623534960117965e-06 -1.4647896105447560e-05 0.28023621648371172 1.3190894080372822e-07 0.0000000000000000 0.50000000000000000 0.0000000000000000 0.49999413764650397 -1.4647896105447560e-05 
0.50000000000000000 0.062500000000000000 0.0000000000000000 -4.4644462219961987e-06 -1.4393154782950702e-05 0.30614823342663194 1.2160076341148058e-07 -3.6175131554735347e-08 0.50000000000000000 0.062500000000000000 0.49999553555377801 0.062485606845217041 
0.56250000000000000 0.0000000000000000 0.0000000000000000 -6.0709212928029791e-06 -1.6165426152918264e-05 0.20903586212637029 1.1394599790133306e-07 0.0000000000000000 0.56250000000000000 0.0000000000000000 0.56249392907870721 -1.6165426152918264e-05 
0.56250000000000000 0.062500000000000000 0.0000000000000000 -4.6857559949982312e-06 -1.5978508565535535e-05 0.23541655797191954 1.0461339176424941e-07 -4.5181584599728086e-08 0.56250000000000000 0.062500000000000000 0.56249531424400512 0.062484021491434456 
0.62500000000000000 0.0000000000000000 0.0000000000000000 -6.2120853137685051e-06 -1.7649712881240245e-05 0.14870348059808158 9.5424115433194925e-08 0.0000000000000000 0.62500000000000000 0.0000000000000000 0.62499378791468618 -1.7649712881240245e-05 
0.62500000000000000 0.062500000000000000 0.0000000000000000 -4.8456961498128725e-06 -1.7521034428410013e-05 0.17488865568953993 8.8182382254221359e-08 -5.2114655608030967e-08 0.62500000000000000 0.062500000000000000 0.62499515430385022 0.062482478965571582 
0.68750000000000000 0.0000000000000000 0.0000000000000000 -6.2969662144520815e-06 -1.9093612752112208e-05 0.099304439697341720 7.6318747822654643e-08 0.0000000000000000 0.68750000000000000 0.0000000000000000 0.68749370303378543 -1.9093612752112208e-05 
0.68750000000000000 0.062500000000000000 0.0000000000000000 -4.9535547730746681e-06 -1.9013159109329352e-05 0.12429752767818580 7.2157389230017776e-08 -5.5913324307076360e-08 0.68750000000000000 0.062500000000000000 0.68749504644522696 0.062480986840890672 
0.75000000000000000 0.0000000000000000 0.0000000000000000 -6.3377170762352160e-06 -2.0492065104489572e-05 0.060849226125896015 5.6366030243715532e-08 0.0000000000000000 0.75000000000000000 0.0000000000000000 0.74999366228292386 -2.0492065104489572e-05 
0.75000000000000000 0.062500000000000000 0.0000000000000000 -5.0189486792414319e-06 -2.0449283208428040e-05 0.083391244721789090 5.6534831926264342e-08 -5.5611412416065045e-08 0.75000000000000000 0.062500000000000000 0.74999498105132079 0.062479550716791572 
0.81250000000000000 0.0000000000000000 0.0000000000000000 -6.3475866096948906e-06 -2.1843181194599459e-05 0.033095437794343575 3.7570398608647157e-08 0.0000000000000000 0.81250000000000000 0.0000000000000000 0.81249365241339033 -2.1843181194599459e-05 
0.81250000000000000 0.062500000000000000 0.0000000000000000 -5.0519555614209298e-06 -2.1826923414937364e-05 0.051742386279796750 4.2668007297104616e-08 -5.0216997343325801e-08 0.81250000000000000 0.062500000000000000 0.81249494804443856 0.062478173076585063 
0.87500000000000000 0.0000000000000000 0.0000000000000000 -6.3407442984528303e-06 -2.3149645948135511e-05 0.015342949317918688 1.7133427285382393e-08 0.0000000000000000 0.87500000000000000 0.0000000000000000 0.87499365925570149 -2.3149645948135511e-05 
0.87500000000000000 0.062500000000000000 0.0000000000000000 -5.0632390444750049e-06 -2.3148225631338862e-05 0.028672921818782351 2.8188160379217827e-08 -3.9217380137529850e-08 0.87500000000000000 0.062500000000000000 0.87499493676095563 0.062476851774368659 
0.93750000000000000 0.0000000000000000 0.0000000000000000 -6.3313543684373940e-06 -2.4420244877848112e-05 0.0061829903039829631 5.6940191936951317e-09 0.0000000000000000 0.93750000000000000 0.0000000000000000 0.93749366864563155 -2.4420244877848112e-05 
0.93750000000000000 0.062500000000000000 0.0000000000000000 -5.0641057463915679e-06 -2.4422035008085292e-05 0.013403299022078796 2.3568850272294364e-08 -2.3338057709146467e-08 0.93750000000000000 0.062500000000000000 0.93749493589425359 0.062475577964991917 
1.0000000000000000 0.0000000000000000 0.0000000000000000 -6.3292983612805254e-06 -2.5668237273048681e-05 0.0028697183618294243 0.0000000000000000 0.0000000000000000 1.0000000000000000 0.0000000000000000 0.99999367070163869 -2.5668237273048681e-05 
1.0000000000000000 0.062500000000000000 0.0000000000000000 -5.0659438514603150e-06 -2.5666216424256254e-05 0.0062035106066541989 0.0000000000000000 -5.8743802987856201e-09 1.0000000000000000 0.062500000000000000 0.99999493405614859 0.062474333783575746 
0.062500000000000000 0.12500000000000000 0.0000000000000000 -1.6610318610785144e-07 -1.6054794635984216e-06 1.2906239842477036 9.9891838473351776e-08 4.5714337502778320e-07 0.062500000000000000 0.12500000000000000 0.062499833896813899 0.12499839452053640 
0.0000000000000000 0.12500000000000000 0.0000000000000000 0.0000000000000000 0.0000000000000000 1.2575817278055179 0.0000000000000000 6.0485724426375583e-07 0.0000000000000000 0.12500000000000000 0.0000000000000000 0.12500000000000000 
0.12500000000000000 0.12500000000000000 0.0000000000000000 -6.0412191565881148e-07 -3.4472260752859618e-06 1.1210014996110926 3.8671357240879100e-07 2.6662120834435905e-07 0.12500000000000000 0.12500000000000000 0.12499939587808435 0.12499655277392473 
0.18750000000000000 0.12500000000000000 0.0000000000000000 -1.2113017684159550e-06 -5.3599453299897306e-06 0.89397876077182625 3.4398645262678336e-07 9.7144261927528043e-08 0.18750000000000000 0.12500000000000000 0.18749878869823158 0.12499464005466999 
0.25000000000000000 0.12500000000000000 0.0000000000000000 -1.7742875401392179e-06 -7.1912932540245457e-06 0.71577099120375909 2.3351857705146518e-07 5.4862222561634159e-08 0.25000000000000000 0.12500000000000000 0.24999822571245986 0.12499280870674599 
0.31250000000000000 0.12500000000000000 0.0000000000000000 -2.2625614811714938e-06 -8.9759324918821350e-06 0.58322904426453814 1.8414915360509788e-07 4.0244689302900005e-08 0.31250000000000000 0.12500000000000000 0.31249773743851877 0.12499102406750810 
0.37500000000000000 0.12500000000000000 0.0000000000000000 -2.6725380086564269e-06 -1.0729638953454525e-05 0.47876936279902305 1.4983618167778016e-07 2.3632755733478048e-08 0.37500000000000000 0.12500000000000000 0.37499732746199133 0.12498927036104655 
0.43750000000000000 0.12500000000000000 0.0000000000000000 -3.0078559838900823e-06 -1.2454041517258122e-05 0.39190272749349475 1.2776049200893671e-07 8.0619544974354076e-09 0.43750000000000000 0.12500000000000000 0.43749699214401611 0.12498754595848273 
0.50000000000000000 0.12500000000000000 0.0000000000000000 -3.2744749643003083e-06 -1.4143943815304680e-05 0.31751812946617658 1.1045888405194693e-07 -6.7403520611811683e-09 0.50000000000000000 0.12500000000000000 0.49999672552503577 0.12498585605618472 
0.56250000000000000 0.12500000000000000 0.0000000000000000 -3.4791668232120341e-06 -1.5791401166074818e-05 0.25321200092423807 9.5542030332770061e-08 -1.9780166900221096e-08 0.56250000000000000 0.12500000000000000 0.56249652083317681 0.12498420859883393 
0.62500000000000000 0.12500000000000000 0.0000000000000000 -3.6290207196444889e-06 -1.7387923864989330e-05 0.19779650569290216 8.1900694703586199e-08 -3.0389727126562503e-08 0.62500000000000000 0.12500000000000000 0.62499637097928040 0.12498261207613502 
0.68750000000000000 0.12500000000000000 0.0000000000000000 -3.7313244402921750e-06 -1.8925800740515807e-05 0.15053547478502413 6.9348426334953928e-08 -3.7937266121897567e-08 0.68750000000000000 0.12500000000000000 0.68749626867555957 0.12498107419925948 
0.75000000000000000 0.12500000000000000 0.0000000000000000 -3.7936448757870074e-06 -2.0399098730634253e-05 0.11074495529655654 5.7773929322399830e-08 -4.1865483487188162e-08 0.75000000000000000 0.12500000000000000 0.74999620635512432 0.12497960090126936 
0.81250000000000000 0.12500000000000000 0.0000000000000000 -3.8240955149555319e-06 -2.1804680425624942e-05 0.077616588248971871 4.8651566042619838e-08 -4.1499782052266702e-08 0.81250000000000000 0.12500000000000000 0.81249617590448509 0.12497819531957437 
0.87500000000000000 0.12500000000000000 0.0000000000000000 -3.8318420269565188e-06 -2.3143493916401721e-05 0.050283890232578267 3.8047350647670696e-08 -3.6884263469268054e-08 0.87500000000000000 0.12500000000000000 0.87499616815797310 0.12497685650608360 
0.93750000000000000 0.12500000000000000 0.0000000000000000 -3.8279288344430342e-06 -2.4422393362596613e-05 0.028507449619317671 3.8629113197834723e-08 -2.7261946908726237e-08 0.93750000000000000 0.12500000000000000 0.93749617207116553 0.12497557760663740 
1.0000000000000000 0.12500000000000000 0.0000000000000000 -3.8264098822455146e-06 -2.5657027904329169e-05 0.015355383895799449 0.0000000000000000 -1.7694815214998506e-08 1.0000000000000000 0.12500000000000000 0.99999617359011772 0.12497434297209568 
0.062500000000000000 0.18750000000000000 0.0000000000000000 -8.8150065001663827e-08 -1.3820153112319818e-06 1.0055901708433177 2.3850426736132173e-08 4.1416493498136412e-07 0.062500000000000000 0.18750000000000000 0.062499911849934996 0.18749861798468878 
0.0000000000000000 0.18750000000000000 0.0000000000000000 0.0000000000000000 0.0000000000000000 0.95233392106920833 0.0000000000000000 4.7036804858910999e-07 0.0000000000000000 0.18750000000000000 0.0000000000000000 0.18750000000000000 
0.12500000000000000 0.18750000000000000 0.0000000000000000 -3.1654246532710898e-07 -3.0372168859778090e-06 0.93923752879214639 1.8663102788248553e-07 3.2721593596836847e-07 0.12500000000000000 0.18750000000000000 0.12499968345753466 0.18749696278311404 
0.18750000000000000 0.18750000000000000 0.0000000000000000 -6.6507982654397057e-07 -4.8525108438980160e-06 0.80966289573628325 2.3111960740094077e-07 1.7895419948197168e-07 0.18750000000000000 0.18750000000000000 0.18749933492017345 0.18749514748915611 
0.25000000000000000 0.18750000000000000 0.0000000000000000 -1.0687103471893976e-06 -6.7179460738114341e-06 0.66972908437873790 2.0466077049883670e-07 9.7235039737620649e-08 0.25000000000000000 0.18750000000000000 0.24999893128965281 0.18749328205392615 
0.31250000000000000 0.18750000000000000 0.0000000000000000 -1.4470432675871412e-06 -8.5657348589474140e-06 0.55345771672978317 1.6344879057841196e-07 6.3397411712613097e-08 0.31250000000000000 0.18750000000000000 0.31249855295673240 0.18749143426514106 
0.37500000000000000 0.18750000000000000 0.0000000000000000 -1.7755885911569410e-06 -1.0387176652487091e-05 0.46053294325622840 1.3167711859175365e-07 3.9828608255149412e-08 0.37500000000000000 0.18750000000000000 0.37499822441140879 0.18748961282334750 
0.43750000000000000 0.18750000000000000 0.0000000000000000 -2.0480089640326836e-06 -1.2176795727327854e-05 0.38413574449587645 1.1081396918017525e-07 2.0783403783364158e-08 0.43750000000000000 0.18750000000000000 0.43749795199103597 0.18748782320427268 
0.50000000000000000 0.18750000000000000 0.0000000000000000 -2.2649193144195253e-06 -1.3927012409375345e-05 0.31945539290489094 9.4947903110338922e-08 3.4683174763074230e-09 0.50000000000000000 0.18750000000000000 0.49999773508068562 0.18748607298759065 
0.56250000000000000 0.18750000000000000 0.0000000000000000 -2.4298037290293242e-06 -1.5629000320197257e-05 0.26377546938906887 8.2160039675256980e-08 -1.1760849839715499e-08 0.56250000000000000 0.18750000000000000 0.56249757019627100 0.18748437099967982 
0.62500000000000000 0.18750000000000000 0.0000000000000000 -2.5473803645359354e-06 -1.7273890495771955e-05 0.21555045614413035 7.1198392288217895e-08 -2.4632978473382801e-08 0.62500000000000000 0.18750000000000000 0.62499745261963546 0.18748272610950423 
0.68750000000000000 0.18750000000000000 0.0000000000000000 -2.6229795835648679e-06 -1.8853682488209197e-05 0.17371812156132119 6.1833474097453874e-08 -3.4749150661985759e-08 0.68750000000000000 0.18750000000000000 0.68749737702041636 0.18748114631751178 
0.75000000000000000 0.18750000000000000 0.0000000000000000 -2.6624486485821590e-06 -2.0361962092473445e-05 0.13729279275300144 5.3941138445519436e-08 -4.1790239881510066e-08 0.75000000000000000 0.18750000000000000 0.74999733755135145 0.18747963803790754 
0.81250000000000000 0.18750000000000000 0.0000000000000000 -2.6724504468749184e-06 -2.1794595483904877e-05 0.10519172903749259 4.8909691706527198e-08 -4.5279122745952049e-08 0.81250000000000000 0.18750000000000000 0.81249732754955317 0.18747820540451610 
0.87500000000000000 0.18750000000000000 0.0000000000000000 -2.6611676070363652e-06 -2.3150550740929943e-05 0.076369550002491862 4.2349438412772527e-08 -4.5418513660324351e-08 0.87500000000000000 0.18750000000000000 0.87499733883239295 0.18747684944925910 
0.93750000000000000 0.18750000000000000 0.0000000000000000 -2.6394972726344460e-06 -2.4433010907460832e-05 0.050832511615603121 4.7891345740835109e-08 -4.0481629382487874e-08 0.93750000000000000 0.18750000000000000 0.93749736050272736 0.18747556698909254 
1.0000000000000000 0.18750000000000000 0.0000000000000000 -2.6227532401401576e-06 -2.5651180775865068e-05 0.032897377448466374 0.0000000000000000 -3.7831889995162041e-08 1.0000000000000000 0.18750000000000000 0.99999737724675997 0.18747434881922417 
0.062500000000000000 0.25000000000000000 0.0000000000000000 -4.8265561418481027e-08 -1.2677916602485271e-06 0.76733053434905052 -3.2220979180729155e-08 3.3820778594790655e-07 0.062500000000000000 0.25000000000000000 0.062499951734438584 0.24999873220833976 
0.0000000000000000 0.25000000000000000 0.0000000000000000 0.0000000000000000 0.0000000000000000 0.71040703137305339 0.0000000000000000 3.7217833086002613e-07 0.0000000000000000 0.25000000000000000 0.0000000000000000 0.25000000000000000 
0.12500000000000000 0.25000000000000000 0.0000000000000000 -1.6466743589452936e-07 -2.8124236635430895e-06 0.74537340010088282 9.0202182385093035e-08 2.9584231891291160e-07 0.12500000000000000 0.25000000000000000 0.12499983533256410 0.24999718757633646 
0.18750000000000000 0.25000000000000000 0.0000000000000000 -3.5276934217596490e-07 -4.5474189340801405e-06 0.67926144534878574 1.2721514986549289e-07 2.2276299819088551e-07 0.18750000000000000 0.25000000000000000 0.18749964723065782 0.24999545258106592 
0.25000000000000000 0.25000000000000000 0.0000000000000000 -5.9076330180902360e-07 -6.3859132719533945e-06 0.59181272788805683 1.4602409979217719e-07 1.4804874282834578e-07 0.25000000000000000 0.25000000000000000 0.24999940923669819 0.24999361408672804 
0.31250000000000000 0.25000000000000000 0.0000000000000000 -8.4077976906356426e-07 -8.2595232495404081e-06 0.50468344865534942 1.2932755161454005e-07 9.2713967661614859e-08 0.31250000000000000 0.25000000000000000 0.31249915922023092 0.24999174047675046 
0.37500000000000000 0.25000000000000000 0.0000000000000000 -1.0681309691338369e-06 -1.0125503204174832e-05 0.42951637576751606 1.0811986003706099e-07 5.9806711950042660e-08 0.37500000000000000 0.25000000000000000 0.37499893186903094 0.24998987449679586 
0.43750000000000000 0.25000000000000000 0.0000000000000000 -1.2584075333290122e-06 -1.1964528178094098e-05 0.36663185198963461 9.0997299888071075e-08 3.5623575962381625e-08 0.43750000000000000 0.25000000000000000 0.43749874159246666 0.24998803547182194 
0.50000000000000000 0.25000000000000000 0.0000000000000000 -1.4071768057528747e-06 -1.3763426503638960e-05 0.31346526346906284 7.7687944229869624e-08 1.5612640107102184e-08 0.50000000000000000 0.25000000000000000 0.49999859282319425 0.24998623657349636 
0.56250000000000000 0.25000000000000000 0.0000000000000000 -1.5146820907157771e-06 -1.5511011228669488e-05 0.26781138124747406 6.7268777595249085e-08 -1.5098434723933447e-09 0.56250000000000000 0.25000000000000000 0.56249848531790925 0.24998448898877132 
0.62500000000000000 0.25000000000000000 0.0000000000000000 -1.5833606774380246e-06 -1.7197347780699009e-05 0.22814486022550451 5.8777767633967044e-08 -1.6190108259542551e-08 0.62500000000000000 0.25000000000000000 0.62499841663932265 0.24998280265221931 
0.68750000000000000 0.25000000000000000 0.0000000000000000 -1.6167582668221341e-06 -1.8813803177005381e-05 0.19330638344412254 5.2047856282054604e-08 -2.8454039514757176e-08 0.68750000000000000 0.25000000000000000 0.68749838324173318 0.24998118619682300 
0.75000000000000000 0.25000000000000000 0.0000000000000000 -1.6192151889427002e-06 -2.0353243113624565e-05 0.16219190159237681 4.6982800709867344e-08 -3.8319066639697144e-08 0.75000000000000000 0.25000000000000000 0.74999838078481107 0.24997964675688641 
0.81250000000000000 0.25000000000000000 0.0000000000000000 -1.5960971470696185e-06 -2.1810251131345462e-05 0.13359524705511364 4.4868846392147482e-08 -4.5586433687869313e-08 0.81250000000000000 0.25000000000000000 0.81249840390285299 0.24997818974886865 
0.87500000000000000 0.25000000000000000 0.0000000000000000 -1.5545243354592511e-06 -2.3181358173778814e-05 0.10634647020882004 4.1475674656864411e-08 -5.0676068128137065e-08 0.87500000000000000 0.25000000000000000 0.87499844547566463 0.24997681864182622 
0.93750000000000000 0.25000000000000000 0.0000000000000000 -1.5046349982310251e-06 -2.4465289575376577e-05 0.080417050215048969 5.0191498696516796e-08 -5.1515723999191753e-08 0.93750000000000000 0.25000000000000000 0.93749849536500174 0.24997553471042464 
1.0000000000000000 0.25000000000000000 0.0000000000000000 -1.4612742939214574e-06 -2.5663292845044463e-05 0.059653489735994679 0.0000000000000000 -5.4756927796156329e-08 1.0000000000000000 0.25000000000000000 0.99999853872570610 0.24997433670715496 
0.062500000000000000 0.31250000000000000 0.0000000000000000 -2.4416314161114384e-08 -1.2156095126320889e-06 0.56702399731114883 -5.8308802167437502e-08 2.9371947886957887e-07 0.062500000000000000 0.31250000000000000 0.062499975583685842 0.31249878439048739 
0.0000000000000000 0.31250000000000000 0.0000000000000000 0.0000000000000000 0.0000000000000000 0.50868027237877367 0.0000000000000000 3.1422512124066309e-07 0.0000000000000000 0.31250000000000000 0.0000000000000000 0.31250000000000000 
0.12500000000000000 0.31250000000000000 0.0000000000000000 -7.2056332574698309e-08 -2.7009977479497484e-06 0.56917592494912095 4.0890254545416816e-08 2.6600742595886900e-07 0.12500000000000000 0.31250000000000000 0.12499992794366742 0.31249729900225204 
0.18750000000000000 0.31250000000000000 0.0000000000000000 -1.5374474140759034e-07 -4.3854343705174697e-06 0.54034036378987971 6.3064979772445720e-08 2.1753480343978437e-07 0.18750000000000000 0.31250000000000000 0.18749984625525859 0.31249561456562946 
0.25000000000000000 0.31250000000000000 0.0000000000000000 -2.6458448487632225e-07 -6.1961855542946184e-06 0.49362699703009288 8.3514543387799358e-08 1.6381272123740839e-07 0.25000000000000000 0.31250000000000000 0.24999973541551510 0.31249380381444564 
0.31250000000000000 0.31250000000000000 0.0000000000000000 -3.8872799721856674e-07 -8.0705391706066065e-06 0.43970157838325158 8.6053640742423202e-08 1.1360267343886593e-07 0.31250000000000000 0.31250000000000000 0.31249961127200271 0.31249192946082932 
0.37500000000000000 0.31250000000000000 0.0000000000000000 -5.0670141704466088e-07 -9.9603848543124449e-06 0.38733048471332149 7.8510000124174785e-08 7.5254635419200173e-08 0.37500000000000000 0.31250000000000000 0.37499949329858295 0.31249003961514571 
0.43750000000000000 0.31250000000000000 0.0000000000000000 -6.0319746989018963e-07 -1.1833216897555927e-05 0.34098507542535744 6.7817520921585066e-08 4.6836761264581241e-08 0.43750000000000000 0.31250000000000000 0.43749939680253008 0.31248816678310248 
0.50000000000000000 0.31250000000000000 0.0000000000000000 -6.7121238353149809e-07 -1.3668689733430415e-05 0.30107345422180015 5.8347687996359599e-08 2.4327799846607690e-08 0.50000000000000000 0.31250000000000000 0.49999932878761649 0.31248633131026660 
0.56250000000000000 0.31250000000000000 0.0000000000000000 -7.0877474012934537e-07 -1.5452153423292764e-05 0.26664789290461915 5.0628347380567512e-08 5.4459950700248288e-09 0.56250000000000000 0.31250000000000000 0.56249929122525988 0.31248454784657670 
0.62500000000000000 0.31250000000000000 0.0000000000000000 -7.1656773010308993e-07 -1.7172005433970820e-05 0.23664053194739545 4.4474260711725008e-08 -1.0801940597025401e-08 0.62500000000000000 0.31250000000000000 0.62499928343226985 0.31248282799456600 
0.68750000000000000 0.31250000000000000 0.0000000000000000 -6.9667407901800117e-07 -1.8818672584120975e-05 0.21006222628176699 3.9901819906616812e-08 -2.4860660562602947e-08 0.68750000000000000 0.31250000000000000 0.68749930332592102 0.31248118132741581 
0.75000000000000000 0.31250000000000000 0.0000000000000000 -6.5210850851826041e-07 -2.0384143705351316e-05 0.18588716037091088 3.6925994833035020e-08 -3.7049335984975923e-08 0.75000000000000000 0.31250000000000000 0.74999934789149147 0.31247961585629463 
0.81250000000000000 0.31250000000000000 0.0000000000000000 -5.8693659424011914e-07 -2.1861636442672462e-05 0.16294235459552128 3.6707588184922613e-08 -4.7433579252119517e-08 0.81250000000000000 0.31250000000000000 0.81249941306340567 0.31247813836355731 
0.87500000000000000 0.31250000000000000 0.0000000000000000 -5.0690947988725679e-07 -2.3245211339555660e-05 0.14000815029024122 3.5670910928171259e-08 -5.6598908368630082e-08 0.87500000000000000 0.31250000000000000 0.87499949309052016 0.31247675478866044 
0.93750000000000000 0.31250000000000000 0.0000000000000000 -4.2060564457076842e-07 -2.4529188833020609e-05 0.11679785480394282 4.6188256240310009e-08 -6.2257759776061976e-08 0.93750000000000000 0.31250000000000000 0.93749957939435546 0.31247547081116700 
1.0000000000000000 0.31250000000000000 0.0000000000000000 -3.4086114432314552e-07 -2.5707183837612915e-05 0.095269275950211049 0.0000000000000000 -7.0510033135476449e-08 1.0000000000000000 0.31250000000000000 0.99999965913885569 0.31247429281616240 
0.062500000000000000 0.37500000000000000 0.0000000000000000 -8.3932872892612435e-09 -1.2022160740939033e-06 0.39189536155190363 -7.8542184624684875e-08 2.6436080644420232e-07 0.062500000000000000 0.37500000000000000 0.062499991606712713 0.37499879778392592 
0.0000000000000000 0.37500000000000000 0.0000000000000000 0.0000000000000000 0.0000000000000000 0.33134049103634788 0.0000000000000000 2.8100583730024273e-07 0.0000000000000000 0.37500000000000000 0.0000000000000000 0.37500000000000000 
0.12500000000000000 0.37500000000000000 0.0000000000000000 -8.5923276914741902e-09 -2.6657926415175484e-06 0.41099697697143561 4.8386989641233425e-09 2.4067270451920537e-07 0.12500000000000000 0.37500000000000000 0.12499999140767230 0.37499733420735848 
0.18750000000000000 0.37500000000000000 0.0000000000000000 -1.2660920163666816e-08 -4.3281518982648834e-06 0.40745549878290133 1.7721488903772690e-08 2.0437490054194283e-07 0.18750000000000000 0.37500000000000000 0.18749998733907983 0.37499567184810173 
0.25000000000000000 0.37500000000000000 0.0000000000000000 -2.3697994652537476e-08 -6.1245425546632518e-06 0.39023749876251773 3.6136857094640254e-08 1.6408721459465087e-07 0.25000000000000000 0.37500000000000000 0.24999997630200535 0.37499387545744534 
0.31250000000000000 0.37500000000000000 0.0000000000000000 -3.8039784093256189e-08 -7.9971675845976931e-06 0.36501074566071895 4.3627332157802732e-08 1.2293799509890419e-07 0.31250000000000000 0.37500000000000000 0.31249996196021584 0.37499200283241541 
0.37500000000000000 0.37500000000000000 0.0000000000000000 -4.8178119952105007e-08 -9.8985417466480613e-06 0.33658472680445328 4.5245179840826962e-08 8.5953893980607554e-08 0.37500000000000000 0.37500000000000000 0.37499995182188006 0.37499010145825334 
0.43750000000000000 0.37500000000000000 0.0000000000000000 -4.6028391384711634e-08 -1.1792508501538541e-05 0.30879960281032109 4.1903303486005597e-08 5.5593275777352098e-08 0.43750000000000000 0.37500000000000000 0.43749995397160862 0.37498820749149847 
0.50000000000000000 0.37500000000000000 0.0000000000000000 -2.5838095197056312e-08 -1.3653277376507977e-05 0.28365090453121494 3.7128879445744172e-08 3.1156017763944395e-08 0.50000000000000000 0.37500000000000000 0.49999997416190478 0.37498634672262349 
0.56250000000000000 0.37500000000000000 0.0000000000000000 1.4795950231640113e-08 -1.5462787686411456e-05 0.26152740669266383 3.2535358430265051e-08 1.0772481025465792e-08 0.56250000000000000 0.37500000000000000 0.56250001479595024 0.37498453721231356 
0.62500000000000000 0.37500000000000000 0.0000000000000000 7.6051429875719192e-08 -1.7207614044413193e-05 0.24210285303717768 2.8727363823610805e-08 -6.7581882142429116e-09 0.62500000000000000 0.37500000000000000 0.62500007605142993 0.37498279238595561 
0.68750000000000000 0.37500000000000000 0.0000000000000000 1.5683959090411740e-07 -1.8877163407003436e-05 0.22479403753630312 2.5992571391565880e-08 -2.2201696258604712e-08 0.68750000000000000 0.37500000000000000 0.68750015683959098 0.37498112283659296 
0.75000000000000000 0.37500000000000000 0.0000000000000000 2.5526389075170362e-07 -2.0462585530976564e-05 0.20883796341180827 2.4532725484344382e-08 -3.6133221293471033e-08 0.75000000000000000 0.37500000000000000 0.75000025526389080 0.37497953741446904 
0.81250000000000000 0.37500000000000000 0.0000000000000000 3.6859438448992901e-07 -2.1955908780083317e-05 0.19324304112620558 2.5374015930038898e-08 -4.8873716724357391e-08 0.81250000000000000 0.37500000000000000 0.81250036859438446 0.37497804409121999 
0.87500000000000000 0.37500000000000000 0.0000000000000000 4.9278801453775475e-07 -2.3349097024581464e-05 0.17682190609212534 2.5987242402804454e-08 -6.1110031376079997e-08 0.87500000000000000 0.37500000000000000 0.87500049278801451 0.37497665090297544 