# For a description of the Tecplot format see the Tecplot User's guide.
#
Variables=x,y,z,s_u,s_v,s_p,x,y,ref_u,ref_v,u,v
Zone f=fepoint, n=289, e=512, et=quadrilateral, c=black
0.00000 0.00000 0.00000 0.0000000000000000 0.0000000000000000 1.7610086289913129 0.0000000000000000 0.0000000000000000 0.0000000000000000 0.0000000000000000 0.0000000000000000 0.0000000000000000 
0.062500000000000000 0.0000000000000000 0.0000000000000000 -1.5867802770903411e-06 -3.2289172942292371e-06 1.4528636605607499 1.1312901971195005e-06 0.0000000000000000 0.062500000000000000 0.0000000000000000 0.062498413219722909 -3.2289172942292371e-06 
0.062500000000000000 0.062500000000000000 0.0000000000000000 -3.9680528814597895e-07 -2.0528078583112579e-06 1.4874808117791016 6.4550565522382409e-07 3.1152824122081345e-07 0.062500000000000000 0.062500000000000000 0.062499603194711852 0.062497947192141690 
0.0000000000000000 0.062500000000000000 0.0000000000000000 0.0000000000000000 0.0000000000000000 1.5500273538686162 0.0000000000000000 8.8336008829961317e-07 0.0000000000000000 0.062500000000000000 0.0000000000000000 0.062500000000000000 
0.12500000000000000 0.0000000000000000 0.0000000000000000 -2.6519786741829381e-06 -5.1428722686074312e-06 1.0837336652556844 4.3186574577077514e-07 0.0000000000000000 0.12500000000000000 0.0000000000000000 0.12499734802132582 -5.1428722686074312e-06 
0.12500000000000000 0.062500000000000000 0.0000000000000000 -1.3397393863903520e-06 -4.2113145841762957e-06 1.1592526644329357 4.4105764775201697e-07 -1.3851251366809266e-07 0.12500000000000000 0.062500000000000000 0.12499866026061361 0.062495788685415825 
0.18750000000000000 0.0000000000000000 0.0000000000000000 -3.4970798890059827e-06 -6.8143282974730380e-06 0.84991577109929128 3.1257989701674749e-07 0.0000000000000000 0.18750000000000000 0.0000000000000000 0.18749650292011100 -6.8143282974730380e-06 
0.18750000000000000 0.062500000000000000 0.0000000000000000 -2.1399504210178748e-06 -6.0568466788787123e-06 0.90279645863351243 3.4269015072453390e-07 -4.7060348839908961e-08 0.18750000000000000 0.062500000000000000 0.18749786004957900 0.062493943153321123 
0.25000000000000000 0.0000000000000000 0.0000000000000000 -4.1939786514765989e-06 -8.4185864359600002e-06 0.68545509181519682 2.3305626736822535e-07 0.0000000000000000 0.25000000000000000 0.0000000000000000 0.24999580602134852 -8.4185864359600002e-06 
0.25000000000000000 0.062500000000000000 0.0000000000000000 -2.8117138955443345e-06 -7.7942206476345445e-06 0.72333353251569077 2.3985165965435302e-07 -3.4752841639517716e-08 0.25000000000000000 0.062500000000000000 0.24999718828610448 0.062492205779352362 
0.31250000000000000 0.0000000000000000 0.0000000000000000 -4.7698238933729264e-06 -1.0002429519513030e-05 0.55724724648097579 1.9141679505821350e-07 0.0000000000000000 0.31250000000000000 0.0000000000000000 0.31249523017610664 -1.0002429519513030e-05 
0.31250000000000000 0.062500000000000000 0.0000000000000000 -3.3712439869544601e-06 -9.4890618146229242e-06 0.58802720295998900 1.9226004522220579e-07 -2.6214939545840267e-08 0.31250000000000000 0.062500000000000000 0.31249662875601297 0.062490510938185369 
0.37500000000000000 0.0000000000000000 0.0000000000000000 -5.2388361353353421e-06 -1.1577320782497077e-05 0.45036312808633205 1.6517862438044205e-07 0.0000000000000000 0.37500000000000000 0.0000000000000000 0.37499476116386465 -1.1577320782497077e-05 
0.37500000000000000 0.062500000000000000 0.0000000000000000 -3.8311104577769433e-06 -1.1160922753318147e-05 0.47837244378325566 1.6082844841246235e-07 -2.8114561743683344e-08 0.37500000000000000 0.062500000000000000 0.37499616888954224 0.062488839077246679 
0.43750000000000000 0.0000000000000000 0.0000000000000000 -5.6112683928054958e-06 -1.3141835206292768e-05 0.35822925500951247 1.4489605982722109e-07 0.0000000000000000 0.43750000000000000 0.0000000000000000 0.43749438873160718 -1.3141835206292768e-05 
0.43750000000000000 0.062500000000000000 0.0000000000000000 -4.2018074412656384e-06 -1.2811663518181098e-05 0.38544310971546075 1.3835701924008573e-07 -3.4023337105661005e-08 0.43750000000000000 0.062500000000000000 0.43749579819255874 0.062487188336481821 
0.50000000000000000 0.0000000000000000 0.0000000000000000 -5.8964558136709593e-06 -1.4689436316692086e-05 0.27807178862886833 1.2683707722583582e-07 0.0000000000000000 0.50000000000000000 0.0000000000000000 0.49999410354418633 -1.4689436316692086e-05 
0.50000000000000000 0.062500000000000000 0.0000000000000000 -4.4928380635225263e-06 -1.4435921076201494e-05 0.30514856725636363 1.1985242388566475e-07 -4.1204438919805608e-08 0.50000000000000000 0.062500000000000000 0.49999550716193647 0.062485564078923798 
0.56250000000000000 0.0000000000000000 0.0000000000000000 -6.1039552968495520e-06 -1.6211845212047887e-05 0.20882785766192055 1.0928205683250280e-07 0.0000000000000000 0.56250000000000000 0.0000000000000000 0.56249389604470312 -1.6211845212047887e-05 
0.56250000000000000 0.062500000000000000 0.0000000000000000 -4.7133389571084118e-06 -1.6025649595226676e-05 0.23568530834095802 1.0304814916167472e-07 -4.7849496573801837e-08 0.56250000000000000 0.062500000000000000 0.56249528666104276 0.062483974350404765 
0.62500000000000000 0.0000000000000000 0.0000000000000000 -6.2440095888567479e-06 -1.7700788529558557e-05 0.15017370286935752 9.1486143029649308e-08 0.0000000000000000 0.62500000000000000 0.0000000000000000 0.62499375599041118 -1.7700788529558557e-05 
0.62500000000000000 0.062500000000000000 0.0000000000000000 -4.8724335947523904e-06 -1.7572379751539538e-05 0.17628020346753248 8.6976668446727637e-08 -5.2741842943101319e-08 0.62500000000000000 0.062500000000000000 0.62499512756640530 0.062482427620248464 
0.68750000000000000 0.0000000000000000 0.0000000000000000 -6.3277737942317315e-06 -1.9149122062284795e-05 0.10204484845115103 7.3386691986973879e-08 0.0000000000000000 0.68750000000000000 0.0000000000000000 0.68749367222620572 -1.9149122062284795e-05 
0.68750000000000000 0.062500000000000000 0.0000000000000000 -4.9794420461315920e-06 -1.9068563098159617e-05 0.12656095868978587 7.1418106528656330e-08 -5.4912962345281570e-08 0.68750000000000000 0.062500000000000000 0.68749502055795386 0.062480931436901831 
0.75000000000000000 0.0000000000000000 0.0000000000000000 -6.3674530059433051e-06 -2.0551798433131910e-05 0.064365877298075733 5.4683237834347511e-08 0.0000000000000000 0.75000000000000000 0.0000000000000000 0.74999363254699392 -2.0551798433131910e-05 
0.75000000000000000 0.062500000000000000 0.0000000000000000 -5.0440235725141971e-06 -2.0508634235249691e-05 0.086221036216510671 5.6275379785122076e-08 -5.3517489382570070e-08 0.75000000000000000 0.062500000000000000 0.74999495597642751 0.062479491365764750 
0.81250000000000000 0.0000000000000000 0.0000000000000000 -6.3763516677365203e-06 -2.1906968234145732e-05 0.036871540061123149 3.7171863689574588e-08 0.0000000000000000 0.81250000000000000 0.0000000000000000 0.81249362364833233 -2.1906968234145732e-05 
0.81250000000000000 0.062500000000000000 0.0000000000000000 -5.0762956082646353e-06 -2.1890164559378723e-05 0.054843314419774102 4.2740664749920306e-08 -4.7726862846442205e-08 0.81250000000000000 0.062500000000000000 0.81249492370439180 0.062478109835440616 
0.87500000000000000 0.0000000000000000 0.0000000000000000 -6.3686813044056835e-06 -2.3217394310904737e-05 0.018952766698655813 1.8178712589296049e-08 0.0000000000000000 0.87500000000000000 0.0000000000000000 0.87499363131869556 -2.3217394310904737e-05 
0.87500000000000000 0.062500000000000000 0.0000000000000000 -5.0869407823045095e-06 -2.3215379783352421e-05 0.031855305514809591 2.8423591841900297e-08 -3.7185989287740678e-08 0.87500000000000000 0.062500000000000000 0.87499491305921773 0.062476784620216656 
0.93750000000000000 0.0000000000000000 0.0000000000000000 -6.3586124103072014e-06 -2.4491981466463229e-05 0.0094299765560341645 7.0741078633884582e-09 0.0000000000000000 0.93750000000000000 0.0000000000000000 0.93749364138758973 -2.4491981466463229e-05 
0.93750000000000000 0.062500000000000000 0.0000000000000000 -5.0872393591798627e-06 -2.4493214800844057e-05 0.016637529661414432 2.2780883499469213e-08 -2.2583686161246004e-08 0.93750000000000000 0.062500000000000000 0.93749491276064079 0.062475506785199149 
1.0000000000000000 0.0000000000000000 0.0000000000000000 -6.3560000658746347e-06 -2.5744202452727064e-05 0.0061083716121145002 0.0000000000000000 0.0000000000000000 1.0000000000000000 0.0000000000000000 0.99999364399993418 -2.5744202452727064e-05 
1.0000000000000000 0.062500000000000000 0.0000000000000000 -5.0885218030346988e-06 -2.5741625383590152e-05 0.0094405360727072580 0.0000000000000000 -7.1889399764619890e-09 1.0000000000000000 0.062500000000000000 0.99999491147819697 0.062474258374616419 
0.062500000000000000 0.12500000000000000 0.0000000000000000 -1.8202945582474789e-07 -1.6115669652907132e-06 1.2467555505659511 7.7072006013708036e-08 4.2296463577614434e-07 0.062500000000000000 0.12500000000000000 0.062499817970544165 0.12499838843303469 
0.0000000000000000 0.12500000000000000 0.0000000000000000 0.0000000000000000 0.0000000000000000 1.2115926175149805 0.0000000000000000 5.4196352724647653e-07 0.0000000000000000 0.12500000000000000 0.0000000000000000 0.12500000000000000 
0.12500000000000000 0.12500000000000000 0.0000000000000000 -6.2857843839788211e-07 -3.4595869263336798e-06 1.0966130276265831 3.5301076685270625e-07 2.4384192301483031e-07 0.12500000000000000 0.12500000000000000 0.12499937142156160 0.12499654041307366 
0.18750000000000000 0.12500000000000000 0.0000000000000000 -1.2362841047907276e-06 -5.3769003373189367e-06 0.88755088304670260 3.2542923222064747e-07 9.3217007273728563e-08 0.18750000000000000 0.12500000000000000 0.18749876371589522 0.12499462309966268 
0.25000000000000000 0.12500000000000000 0.0000000000000000 -1.7987254960550281e-06 -7.2143380858123314e-06 0.71572029263284420 2.3205828816396137e-07 4.9966319583669861e-08 0.25000000000000000 0.12500000000000000 0.24999820127450392 0.12499278566191419 
0.31250000000000000 0.12500000000000000 0.0000000000000000 -2.2864436344874547e-06 -9.0047612120716057e-06 0.58430236507970001 1.8450390381479526e-07 3.4323952089141312e-08 0.31250000000000000 0.12500000000000000 0.31249771355636552 0.12499099523878794 
0.37500000000000000 0.12500000000000000 0.0000000000000000 -2.6959640218935155e-06 -1.0763652117646244e-05 0.47975719057390914 1.5037115036195942e-07 1.8732432099019386e-08 0.37500000000000000 0.12500000000000000 0.37499730403597814 0.12498923634788235 
0.43750000000000000 0.12500000000000000 0.0000000000000000 -3.0308463071530650e-06 -1.2492772223416109e-05 0.39286244908398382 1.2775875986760608e-07 4.4016683830534313e-09 0.43750000000000000 0.12500000000000000 0.43749696915369279 0.12498750722777659 
0.50000000000000000 0.12500000000000000 0.0000000000000000 -3.2969903478773514e-06 -1.4187077075159101e-05 0.31867288805568583 1.1011587645939943e-07 -9.1332139694019177e-09 0.50000000000000000 0.12500000000000000 0.49999670300965210 0.12498581292292484 
0.56250000000000000 0.12500000000000000 0.0000000000000000 -3.5011494838743267e-06 -1.5838718506850516e-05 0.25468432945382063 9.5095842624340153e-08 -2.1068755008309780e-08 0.56250000000000000 0.12500000000000000 0.56249649885051600 0.12498416128149314 
0.62500000000000000 0.12500000000000000 0.0000000000000000 -3.6504253261432299e-06 -1.7439261851966627e-05 0.19959073956926465 8.1514499668681658e-08 -3.0775341954858391e-08 0.62500000000000000 0.12500000000000000 0.62499634957467387 0.12498256073814805 
0.68750000000000000 0.12500000000000000 0.0000000000000000 -3.7521360987583926e-06 -1.8981034820442713e-05 0.15258053989492928 6.9101999512428849e-08 -3.7651852786115785e-08 0.68750000000000000 0.12500000000000000 0.68749624786390129 0.12498101896517956 
0.75000000000000000 0.12500000000000000 0.0000000000000000 -3.8138855892262791e-06 -2.0458146253257304e-05 0.11295473413736785 5.7625124230443778e-08 -4.1163713430080101e-08 0.75000000000000000 0.12500000000000000 0.74999618611441077 0.12497954185374673 
0.81250000000000000 0.12500000000000000 0.0000000000000000 -3.8438152813169150e-06 -2.1867514721713754e-05 0.079964846188725180 4.8411046338339453e-08 -4.0714575717579702e-08 0.81250000000000000 0.12500000000000000 0.81249615618471871 0.12497813248527830 
0.87500000000000000 0.12500000000000000 0.0000000000000000 -3.8510892534066776e-06 -2.3210160629046569e-05 0.052902393287291793 3.7472153889773276e-08 -3.6310511608551410e-08 0.87500000000000000 0.12500000000000000 0.87499614891074662 0.12497678983937095 
0.93750000000000000 0.12500000000000000 0.0000000000000000 -3.8466910829736140e-06 -2.4493011020948474e-05 0.031660020316194387 3.6700925810913720e-08 -2.7519139588000129e-08 0.93750000000000000 0.12500000000000000 0.93749615330891700 0.12497550698897907 
1.0000000000000000 0.12500000000000000 0.0000000000000000 -3.8445897303948861e-06 -2.5731760520169388e-05 0.018916127680327594 0.0000000000000000 -1.8492342747671464e-08 1.0000000000000000 0.12500000000000000 0.99999615541026954 0.12497426823947982 
0.062500000000000000 0.18750000000000000 0.0000000000000000 -9.7541830547980891e-08 -1.3879717244795416e-06 0.98497219104271660 2.3750877080397766e-09 3.9390706749184288e-07 0.062500000000000000 0.18750000000000000 0.062499902458169450 0.18749861202827553 
0.0000000000000000 0.18750000000000000 0.0000000000000000 0.0000000000000000 0.0000000000000000 0.92957692786815616 0.0000000000000000 4.3975285890852356e-07 0.0000000000000000 0.18750000000000000 0.0000000000000000 0.18750000000000000 
0.12500000000000000 0.18750000000000000 0.0000000000000000 -3.3227794053492714e-07 -3.0499615572789138e-06 0.92779169540751960 1.7404004534852213e-07 3.0856158997813162e-07 0.12500000000000000 0.18750000000000000 0.12499966772205946 0.18749695003844272 
0.18750000000000000 0.18750000000000000 0.0000000000000000 -6.8360856040553336e-07 -4.8708888109012143e-06 0.80674119932992649 2.1939082400916670e-07 1.7253309465289315e-07 0.18750000000000000 0.18750000000000000 0.18749931639143960 0.18749512911118907 
0.25000000000000000 0.18750000000000000 0.0000000000000000 -1.0871218351718855e-06 -6.7412051202855635e-06 0.67244800835618135 2.0116937915290511e-07 9.4170215074455097e-08 0.25000000000000000 0.18750000000000000 0.24999891287816481 0.18749325879487969 
0.31250000000000000 0.18750000000000000 0.0000000000000000 -1.4649738710480758e-06 -8.5942380439184656e-06 0.55768295622151964 1.6367555091092874e-07 5.9659493156590286e-08 0.31250000000000000 0.18750000000000000 0.31249853502612895 0.18749140576195608 
0.37500000000000000 0.18750000000000000 0.0000000000000000 -1.7931368817421890e-06 -1.0420762726061197e-05 0.46446119466977259 1.3305773352823125e-07 3.6172504638927603e-08 0.37500000000000000 0.18750000000000000 0.37499820686311830 0.18748957923727394 
0.43750000000000000 0.18750000000000000 0.0000000000000000 -2.0652493916672238e-06 -1.2215137223781125e-05 0.38745541679188400 1.1190998069862148e-07 1.7649339632239610e-08 0.43750000000000000 0.18750000000000000 0.43749793475060833 0.18748778486277626 
0.50000000000000000 0.18750000000000000 0.0000000000000000 -2.2818500502690333e-06 -1.3969808413585802e-05 0.32230397319914511 9.5701118643035315e-08 1.1010036385982447e-09 0.50000000000000000 0.18750000000000000 0.49999771814994975 0.18748603019158641 
0.56250000000000000 0.18750000000000000 0.0000000000000000 -2.4463839951851394e-06 -1.5676012091719133e-05 0.26632065067260080 8.2678522606109760e-08 -1.3395202628789457e-08 0.56250000000000000 0.18750000000000000 0.56249755361600495 0.18748432398790829 
0.62500000000000000 0.18750000000000000 0.0000000000000000 -2.5635685134950128e-06 -1.7324931897532092e-05 0.21788989932424288 7.1604108524576456e-08 -2.5631642129928398e-08 0.62500000000000000 0.18750000000000000 0.62499743643148653 0.18748267506810246 
0.68750000000000000 0.18750000000000000 0.0000000000000000 -2.6387559120244706e-06 -1.8908609759609571e-05 0.17589345623146410 6.2187360690916565e-08 -3.5241833240708104e-08 0.68750000000000000 0.18750000000000000 0.68749736124408800 0.18748109139024038 
0.75000000000000000 0.18750000000000000 0.0000000000000000 -2.6778240010123257e-06 -2.0420673331357658e-05 0.13934326510804501 5.4168633135944327e-08 -4.1900843061143959e-08 0.75000000000000000 0.18750000000000000 0.74999732217599913 0.18747957932666862 
0.81250000000000000 0.18750000000000000 0.0000000000000000 -2.6874581509720581e-06 -2.1857038482638003e-05 0.10723037452304608 4.8836633220150455e-08 -4.5167516644018330e-08 0.81250000000000000 0.18750000000000000 0.81249731254184898 0.18747814296151735 
0.87500000000000000 0.18750000000000000 0.0000000000000000 -2.6758336146119792e-06 -2.3216733465357487e-05 0.078685141334370004 4.1579035274645615e-08 -4.5120647715059742e-08 0.87500000000000000 0.18750000000000000 0.87499732416638543 0.18747678326653464 
0.93750000000000000 0.18750000000000000 0.0000000000000000 -2.6537773490892809e-06 -2.4503003384306516e-05 0.053830707565994805 4.5681339649400999e-08 -4.0480367665742569e-08 0.93750000000000000 0.18750000000000000 0.93749734622265091 0.18747549699661570 
1.0000000000000000 0.18750000000000000 0.0000000000000000 -2.6365206998791951e-06 -2.5725097565243345e-05 0.036518633911416680 0.0000000000000000 -3.7008135264346896e-08 1.0000000000000000 0.18750000000000000 0.99999736347930013 0.18747427490243476 
0.062500000000000000 0.25000000000000000 0.0000000000000000 -5.4101799389530689e-08 -1.2728289431074734e-06 0.75758951234428284 -4.7814289924306178e-08 3.3092022311909740e-07 0.062500000000000000 0.25000000000000000 0.062499945898200619 0.24999872717105689 
0.0000000000000000 0.25000000000000000 0.0000000000000000 0.0000000000000000 0.0000000000000000 0.69813683037270469 0.0000000000000000 3.5709031950530859e-07 0.0000000000000000 0.25000000000000000 0.0000000000000000 0.25000000000000000 
0.12500000000000000 0.25000000000000000 0.0000000000000000 -1.7464531274445012e-07 -2.8236655652513194e-06 0.74220323377703934 8.2488827096812014e-08 2.8863817240941645e-07 0.12500000000000000 0.25000000000000000 0.12499982535468725 0.24999717633443472 
0.18750000000000000 0.25000000000000000 0.0000000000000000 -3.6514453468426745e-07 -4.5646013113654868e-06 0.68081607314080184 1.2154184877801649e-07 2.1783227029801350e-07 0.18750000000000000 0.25000000000000000 0.18749963485546531 0.24999543539868863 
0.25000000000000000 0.25000000000000000 0.0000000000000000 -6.0388980459939886e-07 -6.4084338968798576e-06 0.59632039686731309 1.4315102282887736e-07 1.4531855484573540e-07 0.25000000000000000 0.25000000000000000 0.24999939611019539 0.24999359156610312 
0.31250000000000000 0.25000000000000000 0.0000000000000000 -8.5363024219552981e-07 -8.2870513604686299e-06 0.51042644138526494 1.2922074956136868e-07 9.1422264897059310e-08 0.31250000000000000 0.25000000000000000 0.31249914636975779 0.24999171294863953 
0.37500000000000000 0.25000000000000000 0.0000000000000000 -1.0805868431850266e-06 -1.0158045182881638e-05 0.43506128377100234 1.0943454944976199e-07 5.8253793664210160e-08 0.37500000000000000 0.25000000000000000 0.37499891941315683 0.24998984195481713 
0.43750000000000000 0.25000000000000000 0.0000000000000000 -1.2705345408304983e-06 -1.2001917038147021e-05 0.37143884705071034 9.2426611983896573e-08 3.4045470238260603e-08 0.43750000000000000 0.25000000000000000 0.43749872946545915 0.24998799808296182 
0.50000000000000000 0.25000000000000000 0.0000000000000000 -1.4190140071003717e-06 -1.3805415003377984e-05 0.31751710081332668 7.8898127662709466e-08 1.4239396262459397e-08 0.50000000000000000 0.25000000000000000 0.49999858098599287 0.24998619458499663 
0.56250000000000000 0.25000000000000000 0.0000000000000000 -1.5262255116044541e-06 -1.5557354861918866e-05 0.27124048086711894 6.8221188203402025e-08 -2.5990831350198760e-09 0.56250000000000000 0.25000000000000000 0.56249847377448836 0.24998444264513808 
0.62500000000000000 0.25000000000000000 0.0000000000000000 -1.5945907756279795e-06 -1.7247832733892207e-05 0.23107537432374872 5.9546425696828114e-08 -1.6996917051933062e-08 0.62500000000000000 0.25000000000000000 0.62499840540922424 0.24998275216726615 
0.68750000000000000 0.25000000000000000 0.0000000000000000 -1.6276647564136447e-06 -1.8868250651840957e-05 0.19582646065378428 5.2691912710790766e-08 -2.9018314884197967e-08 0.68750000000000000 0.25000000000000000 0.68749837233524358 0.24998113174934813 
0.75000000000000000 0.25000000000000000 0.0000000000000000 -1.6298107018560242e-06 -2.0411510021868395e-05 0.16438461841377369 4.7436808866450266e-08 -3.8658256466503796e-08 0.75000000000000000 0.25000000000000000 0.74999837018929816 0.24997958848997817 
0.81250000000000000 0.25000000000000000 0.0000000000000000 -1.6064159967954759e-06 -2.1872233651536595e-05 0.13560150304505350 4.5045141158994959e-08 -4.5717547090661540e-08 0.81250000000000000 0.25000000000000000 0.81249839358400322 0.24997812776634845 
0.87500000000000000 0.25000000000000000 0.0000000000000000 -1.5646015212083086e-06 -2.3246997862906932e-05 0.10845981157041602 4.0859614733490370e-08 -5.0407035888340075e-08 0.87500000000000000 0.25000000000000000 0.87499843539847877 0.24997675300213709 
0.93750000000000000 0.25000000000000000 0.0000000000000000 -1.5144531781308090e-06 -2.4534579920966963e-05 0.083017912287196752 4.8627274133591135e-08 -5.1092240282257063e-08 0.93750000000000000 0.25000000000000000 0.93749848554682191 0.24997546542007901 
1.0000000000000000 0.25000000000000000 0.0000000000000000 -1.4707681726781027e-06 -2.5736284808186823e-05 0.062836508782632930 0.0000000000000000 -5.2552814730962985e-08 1.0000000000000000 0.25000000000000000 0.99999852923182730 0.24997426371519182 
0.062500000000000000 0.31250000000000000 0.0000000000000000 -2.8230652365398275e-08 -1.2197880662471876e-06 0.56204493351694085 -7.0892981333872511e-08 2.9060381967137886e-07 0.062500000000000000 0.31250000000000000 0.062499971769347636 0.31249878021193384 
0.0000000000000000 0.31250000000000000 0.0000000000000000 0.0000000000000000 0.0000000000000000 0.50141313342218652 0.0000000000000000 3.0602459580894736e-07 0.0000000000000000 0.31250000000000000 0.0000000000000000 0.31250000000000000 
0.12500000000000000 0.31250000000000000 0.0000000000000000 -7.8479664649605989e-08 -2.7105655181584866e-06 0.56963312298400848 3.3920241084937608e-08 2.6323621368070267e-07 0.12500000000000000 0.31250000000000000 0.12499992152033534 0.31249728943448180 
0.18750000000000000 0.31250000000000000 0.0000000000000000 -1.6167973780686678e-07 -4.4007189835832635e-06 0.54443074313435991 5.8850222948176747e-08 2.1579091997214810e-07 0.18750000000000000 0.31250000000000000 0.18749983832026218 0.31249559928101639 
0.25000000000000000 0.31250000000000000 0.0000000000000000 -2.7312739906437821e-07 -6.2170547597010553e-06 0.49950189878715173 8.2301376410650802e-08 1.6252670955621611e-07 0.25000000000000000 0.31250000000000000 0.24999972687260094 0.31249378294524027 
0.31250000000000000 0.31250000000000000 0.0000000000000000 -3.9720792453821335e-07 -8.0967054553381109e-06 0.44613910658249556 8.6055050144108807e-08 1.1291422523251778e-07 0.31250000000000000 0.31250000000000000 0.31249960279207545 0.31249190329454463 
0.37500000000000000 0.31250000000000000 0.0000000000000000 -5.1477435502643703e-07 -9.9916396146735438e-06 0.39356067413796031 7.9507850218640086e-08 7.4668737466645900e-08 0.37500000000000000 0.31250000000000000 0.37499948522564491 0.31249000836038526 
0.43750000000000000 0.31250000000000000 0.0000000000000000 -6.1084267220325322e-07 -1.1869426100981928e-05 0.34654577395885761 6.9170101714572015e-08 4.6118490880044350e-08 0.43750000000000000 0.31250000000000000 0.43749938915732772 0.31248813057389896 
0.50000000000000000 0.31250000000000000 0.0000000000000000 -6.7847842867618189e-07 -1.3709652654359771e-05 0.30584506016860313 5.9653659168015503e-08 2.3547007971017813e-08 0.50000000000000000 0.31250000000000000 0.49999932152157139 0.31248629034734560 
0.56250000000000000 0.31250000000000000 0.0000000000000000 -7.1569495242710471e-07 -1.5497634483313708e-05 0.27069006551585856 5.1751870204794869e-08 4.7144388966498666e-09 0.56250000000000000 0.31250000000000000 0.56249928430504770 0.31248450236551667 
0.62500000000000000 0.31250000000000000 0.0000000000000000 -7.2315684046851928e-07 -1.7221772431410636e-05 0.24005387941688541 4.5426869343957311e-08 -1.1431322507936724e-08 0.62500000000000000 0.31250000000000000 0.62499927684315948 0.31248277822756859 
0.68750000000000000 0.31250000000000000 0.0000000000000000 -7.0294574033437302e-07 -1.8872513474905683e-05 0.21293210477203137 4.0736474063778147e-08 -2.5367290957166138e-08 0.68750000000000000 0.31250000000000000 0.68749929705425972 0.31248112748652507 
0.75000000000000000 0.31250000000000000 0.0000000000000000 -6.5809215219016738e-07 -2.0441871245776099e-05 0.18828488792606823 3.7600852460589299e-08 -3.7386652924399902e-08 0.75000000000000000 0.31250000000000000 0.74999934190784778 0.31247955812875422 
0.81250000000000000 0.31250000000000000 0.0000000000000000 -5.9268580882055643e-07 -2.1923089841560664e-05 0.16496177755908711 3.7262520173492207e-08 -4.7530766805125829e-08 0.81250000000000000 0.31250000000000000 0.81249940731419112 0.31247807691015844 
0.87500000000000000 0.31250000000000000 0.0000000000000000 -5.1249671839236093e-07 -2.3310259465725668e-05 0.14183803828259167 3.5522227265311890e-08 -5.6124465120156123e-08 0.87500000000000000 0.31250000000000000 0.87499948750328149 0.31247668974053427 
0.93750000000000000 0.31250000000000000 0.0000000000000000 -4.2609059649721381e-07 -2.4597741775155770e-05 0.11866207285529272 4.5943310230068610e-08 -6.1271877824157325e-08 0.93750000000000000 0.31250000000000000 0.93749957390940353 0.31247540225822484 
1.0000000000000000 0.31250000000000000 0.0000000000000000 -3.4631372444259144e-07 -2.5779220508101126e-05 0.097449030971322140 0.0000000000000000 -6.7083304589531686e-08 1.0000000000000000 0.31250000000000000 0.99999965368627552 0.31247422077949188 
0.062500000000000000 0.37500000000000000 0.0000000000000000 -1.0934762156772248e-08 -1.2057795882039094e-06 0.38914907464832327 -8.8388291573532541e-08 2.6270457544975551e-07 0.062500000000000000 0.37500000000000000 0.062499989065237842 0.37499879422041177 
0.0000000000000000 0.37500000000000000 0.0000000000000000 0.0000000000000000 0.0000000000000000 0.32682953711502261 0.0000000000000000 2.7563877197297466e-07 0.0000000000000000 0.37500000000000000 0.0000000000000000 0.37500000000000000 
0.12500000000000000 0.37500000000000000 0.0000000000000000 -1.2709708323403824e-08 -2.6740411575843192e-06 0.41277123143119782 -1.2443488087038132e-09 2.3990114605332538e-07 0.12500000000000000 0.37500000000000000 0.12499998729029167 0.37499732595884244 
0.18750000000000000 0.37500000000000000 0.0000000000000000 -1.7501801303049856e-08 -4.3417248941703190e-06 0.41237243558836467 1.4066205983282507e-08 2.0442432133227785e-07 0.18750000000000000 0.37500000000000000 0.18749998249819869 0.37499565827510578 
0.25000000000000000 0.37500000000000000 0.0000000000000000 -2.8669679666260143e-08 -6.1436764907611406e-06 0.39663192043617862 3.5144069503343955e-08 1.6411732345333573e-07 0.25000000000000000 0.37500000000000000 0.24999997133032034 0.37499385632350929 
0.31250000000000000 0.37500000000000000 0.0000000000000000 -4.2760172468245308e-08 -8.0217975672073022e-06 0.37172175080194431 4.3815554863533205e-08 1.2294483025664962e-07 0.31250000000000000 0.37500000000000000 0.31249995723982754 0.37499197820243285 
0.37500000000000000 0.37500000000000000 0.0000000000000000 -5.2414848780626816e-08 -9.9284733329216033e-06 0.34300460415687128 4.6091134387568152e-08 8.5937754401207908e-08 0.37500000000000000 0.37500000000000000 0.37499994758515115 0.37499007152666713 
0.43750000000000000 0.37500000000000000 0.0000000000000000 -4.9701693796944020e-08 -1.1827535226190176e-05 0.31462519489937874 4.3046664604524424e-08 5.5476996248099345e-08 0.43750000000000000 0.37500000000000000 0.43749995029830618 0.37498817246477373 
0.50000000000000000 0.37500000000000000 0.0000000000000000 -2.8983331988500567e-08 -1.3693195135296547e-05 0.28875739316727761 3.8331288459855570e-08 3.0895361997138904e-08 0.50000000000000000 0.37500000000000000 0.49999997101666799 0.37498630680486472 
0.56250000000000000 0.37500000000000000 0.0000000000000000 1.2118934011309287e-08 -1.5507366212962159e-05 0.26591718098763306 3.3654558657264742e-08 1.0437520242331628e-08 0.56250000000000000 0.37500000000000000 0.56250001211893397 0.37498449263378703 
0.62500000000000000 0.37500000000000000 0.0000000000000000 7.3790610289260432e-08 -1.7256612602528521e-05 0.24583162243040235 2.9733990366050424e-08 -7.1011751486048952e-09 0.62500000000000000 0.37500000000000000 0.62500007379061018 0.37498274338739751 
0.68750000000000000 0.37500000000000000 0.0000000000000000 1.5494770715139387e-07 -1.8930347037093110e-05 0.22791418100439850 2.6936752482971061e-08 -2.2497819192928452e-08 0.68750000000000000 0.37500000000000000 0.68750015494770711 0.37498106965296291 
0.75000000000000000 0.37500000000000000 0.0000000000000000 2.5368255466165066e-07 -2.0519731450170382e-05 0.21137472881577848 2.5405673214627135e-08 -3.6298926665870072e-08 0.75000000000000000 0.37500000000000000 0.75000025368255463 0.37497948026854983 
0.81250000000000000 0.37500000000000000 0.0000000000000000 3.6723621122609540e-07 -2.2016807248141763e-05 0.19519784870963583 2.6366926002258521e-08 -4.8783728543701258e-08 0.81250000000000000 0.37500000000000000 0.81250036723621122 0.37497798319275194 
0.87500000000000000 0.37500000000000000 0.0000000000000000 4.9152245884514355e-07 -2.3413552961752217e-05 0.17820970988505880 2.6496357551970604e-08 -6.0360640600789112e-08 0.87500000000000000 0.37500000000000000 0.87500049152245885 0.37497658644703824 