# For a description of the Tecplot format see the Tecplot User's guide.
#
Variables=x,y,z,s_u,s_v,s_p,x,y,ref_u,ref_v,u,v
Zone f=fepoint, n=289, e=512, et=quadrilateral, c=black
0.00000 0.00000 0.00000 0.0000000000000000 0.0000000000000000 5.3630484352060206 0.0000000000000000 0.0000000000000000 0.0000000000000000 0.0000000000000000 0.0000000000000000 0.0000000000000000 
0.062500000000000000 0.0000000000000000 0.0000000000000000 -6.9732641114435936e-07 -2.0732442176596681e-06 2.7668177999214998 3.6763217697271671e-06 0.0000000000000000 0.062500000000000000 0.0000000000000000 0.062499302673588858 -2.0732442176596681e-06 
0.062500000000000000 0.062500000000000000 0.0000000000000000 -1.4839668324768545e-08 -1.4343562127231946e-06 1.9503920994441881 1.5225532744328927e-06 1.4845737083938194e-06 0.062500000000000000 0.062500000000000000 0.062499985160331673 0.062498565643787286 
0.0000000000000000 0.062500000000000000 0.0000000000000000 -1.7113877401723401e-26 0.0000000000000000 1.1677093625100221 2.6082655219643530e-22 2.8657603576702523e-06 0.0000000000000000 0.062500000000000000 -1.7113877401723401e-26 0.062500000000000000 
0.12500000000000000 0.0000000000000000 0.0000000000000000 -1.2973250485724914e-06 -3.8697653999051701e-06 2.3237152677237942 2.9245738359890698e-06 0.0000000000000000 0.12500000000000000 0.0000000000000000 0.12499870267495143 -3.8697653999051701e-06 
0.12500000000000000 0.062500000000000000 0.0000000000000000 -5.6761883205277851e-07 -3.3146660372371520e-06 0.35368161010190136 -1.1787287169197118e-06 -5.5172647946688897e-07 0.12500000000000000 0.062500000000000000 0.12499943238116795 0.062496685333962763 
0.18750000000000000 0.0000000000000000 0.0000000000000000 -1.7969588826444720e-06 -5.4896035624843766e-06 1.9467875415079625 2.3068983368905317e-06 0.0000000000000000 0.18750000000000000 0.0000000000000000 0.18749820304111733 -5.4896035624843766e-06 
0.18750000000000000 0.062500000000000000 0.0000000000000000 -1.0556071314622357e-06 -5.0302968544163546e-06 0.29486000154931347 -5.2757094006890727e-07 9.1387496933469320e-08 0.18750000000000000 0.062500000000000000 0.18749894439286854 0.062494969703145588 
0.25000000000000000 0.0000000000000000 0.0000000000000000 -2.2095480737595590e-06 -6.9861466829796873e-06 1.6283149547744298 2.0270004647286375e-06 0.0000000000000000 0.25000000000000000 0.0000000000000000 0.24999779045192624 -6.9861466829796873e-06 
0.25000000000000000 0.062500000000000000 0.0000000000000000 -1.4580550311371671e-06 -6.6081828688553608e-06 0.23100843648111832 -5.4115566582142577e-07 -4.3473056320697083e-08 0.25000000000000000 0.062500000000000000 0.24999854194496887 0.062493391817131143 
0.31250000000000000 0.0000000000000000 0.0000000000000000 -2.5450776493174261e-06 -8.3931638893995312e-06 1.3515945464229910 1.7728151757368595e-06 0.0000000000000000 0.31250000000000000 0.0000000000000000 0.31249745492235070 -8.3931638893995312e-06 
0.31250000000000000 0.062500000000000000 0.0000000000000000 -1.7877244269503324e-06 -8.0869862538376875e-06 0.17822821493224375 -4.6416493116144156e-07 -5.7141206098218163e-09 0.31250000000000000 0.062500000000000000 0.31249821227557306 0.062491913013746160 
0.37500000000000000 0.0000000000000000 0.0000000000000000 -2.8129863879810398e-06 -9.7277825230456293e-06 1.1081867355484081 1.5801650225075924e-06 0.0000000000000000 0.37500000000000000 0.0000000000000000 0.37499718701361201 -9.7277825230456293e-06 
0.37500000000000000 0.062500000000000000 0.0000000000000000 -2.0531353188956999e-06 -9.4845981346984337e-06 0.13249570005939590 -4.2539903863539037e-07 -1.8304389137036763e-08 0.37500000000000000 0.062500000000000000 0.37499794686468113 0.062490515401865294 
0.43750000000000000 0.0000000000000000 0.0000000000000000 -3.0216725474606774e-06 -1.0999289794455413e-05 0.89319466362680267 1.4115209474293286e-06 0.0000000000000000 0.43750000000000000 0.0000000000000000 0.43749697832745255 -1.0999289794455413e-05 
0.43750000000000000 0.062500000000000000 0.0000000000000000 -2.2621073084447056e-06 -1.0811123854268254e-05 0.094033213132459201 -3.8788769171706469e-07 -2.3682518635446208e-08 0.43750000000000000 0.062500000000000000 0.43749773789269147 0.062489188876145733 
0.50000000000000000 0.0000000000000000 0.0000000000000000 -3.1791537111377558e-06 -1.2212409575758418e-05 0.70379154451291981 1.2589338906955987e-06 0.0000000000000000 0.50000000000000000 0.0000000000000000 0.49999682084628888 -1.2212409575758418e-05 
0.50000000000000000 0.062500000000000000 0.0000000000000000 -2.4219089316851255e-06 -1.2071658522819460e-05 0.062170533210318145 -3.5488069834579347e-07 -3.1977628246449084e-08 0.50000000000000000 0.062500000000000000 0.49999757809106832 0.062487928341477185 
0.56250000000000000 0.0000000000000000 0.0000000000000000 -3.2931918694402722e-06 -1.3369579339137609e-05 0.53839352598650758 1.1141545318828010e-06 0.0000000000000000 0.56250000000000000 0.0000000000000000 0.56249670680813058 -1.3369579339137609e-05 
0.56250000000000000 0.062500000000000000 0.0000000000000000 -2.5395257322965155e-06 -1.3268858344651992e-05 0.036584523490718945 -3.2225197775669507e-07 -3.9007259581581708e-08 0.56250000000000000 0.062500000000000000 0.56249746047426774 0.062486731141655351 
0.62500000000000000 0.0000000000000000 0.0000000000000000 -3.3714000149302093e-06 -1.4472164031409081e-05 0.39614403792346214 9.7302789487397305e-07 0.0000000000000000 0.62500000000000000 0.0000000000000000 0.62499662859998506 -1.4472164031409081e-05 
0.62500000000000000 0.062500000000000000 0.0000000000000000 -2.6217940715334459e-06 -1.4404222454667481e-05 0.016949132644984582 -2.8908310909273665e-07 -4.4926556343261492e-08 0.62500000000000000 0.062500000000000000 0.62499737820592849 0.062485595777545332 
0.68750000000000000 0.0000000000000000 0.0000000000000000 -3.4212293141298207e-06 -1.5521148775285310e-05 0.27661392690226733 8.3247812585965048e-07 0.0000000000000000 0.68750000000000000 0.0000000000000000 0.68749657877068582 -1.5521148775285310e-05 
0.68750000000000000 0.062500000000000000 0.0000000000000000 -2.6754514373020917e-06 -1.5478892035881556e-05 0.0029806385926150112 -2.5447547394079439e-07 -4.8511604890495006e-08 0.68750000000000000 0.062500000000000000 0.68749732454856272 0.062484521107964118 
0.75000000000000000 0.0000000000000000 0.0000000000000000 -3.4498602427572269e-06 -1.6517457366849100e-05 0.17960799874282871 6.9094911495065853e-07 0.0000000000000000 0.75000000000000000 0.0000000000000000 0.74999655013975719 -1.6517457366849100e-05 
0.75000000000000000 0.062500000000000000 0.0000000000000000 -2.7070993785472108e-06 -1.6494050409540954e-05 -0.0056024029794573922 -2.1824023572004424e-07 -5.2497062267810698e-08 0.75000000000000000 0.062500000000000000 0.74999729290062145 0.062483505949590457 
0.81250000000000000 0.0000000000000000 0.0000000000000000 -3.4639560312096920e-06 -1.7461941734008562e-05 0.10504372471297230 5.4541538414986925e-07 0.0000000000000000 0.81250000000000000 0.0000000000000000 0.81249653604396876 -1.7461941734008562e-05 
0.81250000000000000 0.062500000000000000 0.0000000000000000 -2.7230739460716920e-06 -1.7451102287379555e-05 -0.0090656876018284736 -1.8000127319591894e-07 -4.8319770311031251e-08 0.81250000000000000 0.062500000000000000 0.81249727692605400 0.062482548897712618 
0.87500000000000000 0.0000000000000000 0.0000000000000000 -3.4693348042741363e-06 -1.8355238994843751e-05 0.053062127279918742 3.9745343842780652e-07 0.0000000000000000 0.87500000000000000 0.0000000000000000 0.87499653066519567 -1.8355238994843751e-05 
0.87500000000000000 0.062500000000000000 0.0000000000000000 -2.7291674898115645e-06 -1.8351433448839674e-05 -0.0077012632124985698 -1.4164952942705184e-07 -6.5647111178559625e-08 0.87500000000000000 0.062500000000000000 0.87499727083251033 0.062481648566551161 
0.93750000000000000 0.0000000000000000 0.0000000000000000 -3.4703322378716600e-06 -1.9196518890075832e-05 0.020824350872938619 2.3634025750527410e-07 0.0000000000000000 0.93750000000000000 0.0000000000000000 0.93749652966776209 -1.9196518890075832e-05 
0.93750000000000000 0.062500000000000000 0.0000000000000000 -2.7303179059860569e-06 -1.9196036525925873e-05 -0.0036555858866063676 -1.0017332404678052e-07 -1.9281565975342061e-08 0.93750000000000000 0.062500000000000000 0.93749726968209401 0.062480803963474073 
1.0000000000000000 0.0000000000000000 0.0000000000000000 -3.4698346923184398e-06 -1.9991461529139334e-05 0.034255016868302242 0.0000000000000000 0.0000000000000000 1.0000000000000000 0.0000000000000000 0.99999653016530765 -1.9991461529139334e-05 
1.0000000000000000 0.062500000000000000 0.0000000000000000 -2.7299695275694596e-06 -1.9990985470594569e-05 0.010774901909901970 0.0000000000000000 -1.3717586113532093e-07 1.0000000000000000 0.062500000000000000 0.99999727003047256 0.062480009014529408 
0.062500000000000000 0.12500000000000000 0.0000000000000000 -5.0131793417077923e-09 -1.3977420297454088e-06 0.48290190698808771 -4.5502441924225798e-07 -1.1656820649630736e-06 0.062500000000000000 0.12500000000000000 0.062499994986820663 0.12499860225797026 
0.0000000000000000 0.12500000000000000 0.0000000000000000 3.4030281469203828e-25 0.0000000000000000 0.83951512635846448 -4.2218948043304562e-22 2.9712344761607230e-06 0.0000000000000000 0.12500000000000000 3.4030281469203828e-25 0.12500000000000000 
0.12500000000000000 0.12500000000000000 0.0000000000000000 -3.5562675644652773e-08 -2.8202810075772069e-06 1.5954567511066731 1.5345303968920572e-06 1.4404513485958719e-06 0.12500000000000000 0.12500000000000000 0.12499996443732435 0.12499717971899242 
0.18750000000000000 0.12500000000000000 0.0000000000000000 -4.6344157192498556e-07 -4.6057153905889106e-06 0.37191900386514892 5.8233106600130132e-08 -4.5998953855629751e-07 0.18750000000000000 0.12500000000000000 0.18749953655842808 0.12499539428460942 
0.25000000000000000 0.12500000000000000 0.0000000000000000 -8.3066837710597611e-07 -6.2586235955951692e-06 0.33387445409073707 2.8661480891593190e-07 -3.9962837839554028e-09 0.25000000000000000 0.12500000000000000 0.24999916933162289 0.12499374137640440 
0.31250000000000000 0.12500000000000000 0.0000000000000000 -1.1324222139662879e-06 -7.8020781795908757e-06 0.27231480758373516 1.9330086813007267e-07 -8.1953150858286965e-08 0.31250000000000000 0.12500000000000000 0.31249886757778605 0.12499219792182041 
0.37500000000000000 0.12500000000000000 0.0000000000000000 -1.3765483891906870e-06 -9.2570860598665607e-06 0.22262034021139310 1.9132183697346615e-07 -5.7190771471430833e-08 0.37500000000000000 0.12500000000000000 0.37499862345161089 0.12499074291394012 
0.43750000000000000 0.12500000000000000 0.0000000000000000 -1.5695113767508476e-06 -1.0634070656671527e-05 0.17902837972465568 1.7021699940360762e-07 -5.9450430601343680e-08 0.43750000000000000 0.12500000000000000 0.43749843048862319 0.12498936592934333 
0.50000000000000000 0.12500000000000000 0.0000000000000000 -1.7174680256951502e-06 -1.1938501069487092e-05 0.14149066680850542 1.5671737903856497e-07 -5.7720245118355423e-08 0.50000000000000000 0.12500000000000000 0.49999828253197437 0.12498806149893051 
0.56250000000000000 0.12500000000000000 0.0000000000000000 -1.8263906181711501e-06 -1.3173179652038138e-05 0.10931531300466213 1.4313370799804160e-07 -5.7562081627725905e-08 0.56250000000000000 0.12500000000000000 0.56249817360938181 0.12498682682034797 
0.62500000000000000 0.12500000000000000 0.0000000000000000 -1.9022018634691568e-06 -1.4339673755256323e-05 0.082175568816789710 1.3081820468783043e-07 -5.6958005801558089e-08 0.62500000000000000 0.12500000000000000 0.62499809779813653 0.12498566032624474 
0.68750000000000000 0.12500000000000000 0.0000000000000000 -1.9508251531338377e-06 -1.5439169668064682e-05 0.059818645651155876 1.1914335892371972e-07 -5.5251016251786137e-08 0.68750000000000000 0.12500000000000000 0.68749804917484691 0.12498456083033194 
0.75000000000000000 0.12500000000000000 0.0000000000000000 -1.9781844438033802e-06 -1.6472954216831158e-05 0.042069630094025014 1.0812852887825220e-07 -5.4995302252716767e-08 0.75000000000000000 0.12500000000000000 0.74999802181555619 0.12498352704578318 
0.81250000000000000 0.12500000000000000 0.0000000000000000 -1.9901267772390499e-06 -1.7442689366024954e-05 0.028867574925301492 9.7422263961640103e-08 -4.6451100041136541e-08 0.81250000000000000 0.12500000000000000 0.81249800987322274 0.12498255731063397 
0.87500000000000000 0.12500000000000000 0.0000000000000000 -1.9922503062954628e-06 -1.8350280983846242e-05 0.020227430287299997 8.6566541136542346e-08 -6.5434985081274984e-08 0.87500000000000000 0.12500000000000000 0.87499800774969383 0.12498164971901615 
0.93750000000000000 0.12500000000000000 0.0000000000000000 -1.9896356719630353e-06 -1.9197770374514302e-05 0.013796745924378828 8.2992747468471638e-08 6.4697012470881969e-09 0.93750000000000000 0.12500000000000000 0.93749801036432789 0.12498080222962549 
1.0000000000000000 0.12500000000000000 0.0000000000000000 -1.9859324226755100e-06 -1.9992316048156227e-05 0.039620278644435333 0.0000000000000000 -1.7468177633236912e-07 1.0000000000000000 0.12500000000000000 0.99999801406757738 0.12498000768395184 
0.062500000000000000 0.18750000000000000 0.0000000000000000 8.6728147280307786e-10 -1.3891795747203348e-06 0.41753923916512248 1.5776451729539682e-07 -6.0018247451060284e-07 0.062500000000000000 0.18750000000000000 0.062500000867281469 0.18749861082042529 
0.0000000000000000 0.18750000000000000 0.0000000000000000 6.6641990595936268e-25 0.0000000000000000 0.39948006641706052 -5.8457004979603795e-22 2.3347803170330480e-06 0.0000000000000000 0.18750000000000000 6.6641990595936268e-25 0.18750000000000000 
0.12500000000000000 0.18750000000000000 0.0000000000000000 -6.7499889350259396e-09 -2.7898681594218546e-06 0.40004508283145251 -3.6397958671404617e-07 5.2409579586595852e-08 0.12500000000000000 0.18750000000000000 0.12499999325001108 0.18749721013184059 
0.18750000000000000 0.18750000000000000 0.0000000000000000 -2.3459426799171144e-08 -4.2335977194588694e-06 1.2485429450113605 9.5849167480622574e-07 9.2026303052643811e-07 0.18750000000000000 0.18750000000000000 0.18749997654057318 0.18749576640228052 
0.25000000000000000 0.18750000000000000 0.0000000000000000 -3.3523952449586161e-07 -5.9466617033419775e-06 0.31249954935695906 -1.8107962588717809e-07 -3.0639048143664716e-07 0.25000000000000000 0.18750000000000000 0.24999966476047550 0.18749405333829669 
0.31250000000000000 0.18750000000000000 0.0000000000000000 -5.9639381937742766e-07 -7.5477611034035307e-06 0.28670859890781214 5.5243916338776539e-08 1.8841911799414623e-08 0.31250000000000000 0.18750000000000000 0.31249940360618061 0.18749245223889657 
0.37500000000000000 0.18750000000000000 0.0000000000000000 -8.0717666062097914e-07 -9.0536444876186256e-06 0.23250284704959423 -3.8562737754176583e-09 -5.3635459617478093e-08 0.37500000000000000 0.18750000000000000 0.37499919282333938 0.18749094635551236 
0.43750000000000000 0.18750000000000000 0.0000000000000000 -9.7301498789576475e-07 -1.0475990409045760e-05 0.19040597066136447 8.7795428955266368e-09 -3.7114532512028202e-08 0.43750000000000000 0.18750000000000000 0.43749902698501214 0.18748952400959096 
0.50000000000000000 0.18750000000000000 0.0000000000000000 -1.0987946086276613e-06 -1.1820273225288022e-05 0.15395464495666858 3.9373769846315146e-09 -4.3750531445318121e-08 0.50000000000000000 0.18750000000000000 0.49999890120539137 0.18748817972677470 
0.56250000000000000 0.18750000000000000 0.0000000000000000 -1.1894639760428126e-06 -1.3089345016454891e-05 0.12297781393962348 3.9802281909374513e-09 -4.5305173295671495e-08 0.56250000000000000 0.18750000000000000 0.56249881053602391 0.18748691065498355 
0.62500000000000000 0.18750000000000000 0.0000000000000000 -1.2500628556556695e-06 -1.4284723350806556e-05 0.096632474481239614 3.5130421101466850e-09 -4.7803464054569016e-08 0.62500000000000000 0.18750000000000000 0.62499874993714422 0.18748571527664917 
0.68750000000000000 0.18750000000000000 0.0000000000000000 -1.2857599773797365e-06 -1.5407522749860102e-05 0.074548206369270245 3.9943873760119420e-09 -4.8598218598839416e-08 0.68750000000000000 0.18750000000000000 0.68749871424002251 0.18748459247725013 
0.75000000000000000 0.18750000000000000 0.0000000000000000 -1.3018604063391644e-06 -1.6458977633059143e-05 0.056456453532489292 5.0836829072226930e-09 -5.0766154266191501e-08 0.75000000000000000 0.18750000000000000 0.74999869813959374 0.18748354102236695 
0.81250000000000000 0.18750000000000000 0.0000000000000000 -1.3037665292341101e-06 -1.7440795888678881e-05 0.042354062262486301 6.7393750105681302e-09 -4.3518940880609249e-08 0.81250000000000000 0.18750000000000000 0.81249869623347071 0.18748255920411136 
0.87500000000000000 0.18750000000000000 0.0000000000000000 -1.2968697594707787e-06 -1.8355093876393915e-05 0.032315834221033922 8.8821440579822252e-09 -6.7194387926198897e-08 0.87500000000000000 0.18750000000000000 0.87499870313024053 0.18748164490612360 
0.93750000000000000 0.18750000000000000 0.0000000000000000 -1.2863469998134962e-06 -1.9204612119092177e-05 0.023383763300234662 1.1567879016162213e-08 2.1219208990136291e-08 0.93750000000000000 0.18750000000000000 0.93749871365300030 0.18748079538788090 
1.0000000000000000 0.18750000000000000 0.0000000000000000 -1.2765047576374185e-06 -1.9996842346390251e-05 0.066959728800719154 0.0000000000000000 -2.5128314844055014e-07 1.0000000000000000 0.18750000000000000 0.99999872349524244 0.18748000315765365 
0.062500000000000000 0.25000000000000000 0.0000000000000000 5.9604455925101557e-09 -1.3946649446842608e-06 0.31281992690202276 -4.6508390320367541e-08 -5.9913484382400136e-07 0.062500000000000000 0.25000000000000000 0.062500005960445595 0.24999860533505533 
0.0000000000000000 0.25000000000000000 0.0000000000000000 1.1121027293587916e-24 0.0000000000000000 0.041266349989869631 -1.2990445551138120e-22 2.0376669332763557e-06 0.0000000000000000 0.25000000000000000 1.1121027293587916e-24 0.25000000000000000 
0.12500000000000000 0.25000000000000000 0.0000000000000000 1.9494435538514129e-08 -2.7891547665856525e-06 0.36316711435708177 8.1212722290086124e-08 3.1707227086772029e-07 0.12500000000000000 0.25000000000000000 0.12500001949443554 0.24999721084523338 
0.18750000000000000 0.25000000000000000 0.0000000000000000 3.0712370972115324e-08 -4.2260426966454244e-06 0.34652906604333777 -2.5337309439354151e-07 -1.9406968906134067e-07 0.18750000000000000 0.25000000000000000 0.18750003071237098 0.24999577395730335 
0.25000000000000000 0.25000000000000000 0.0000000000000000 4.2260295327930606e-08 -5.6855103824882558e-06 0.98184229750165875 7.8363927742360093e-07 7.5361045170491234e-07 0.25000000000000000 0.25000000000000000 0.25000004226029532 0.24999431448961751 
0.31250000000000000 0.25000000000000000 0.0000000000000000 -1.6559860161432799e-07 -7.3358988395113090e-06 0.27050577260095848 -9.2583172960357874e-08 -2.5667018071950769e-07 0.31250000000000000 0.25000000000000000 0.31249983440139845 0.24999266410116050 
0.37500000000000000 0.25000000000000000 0.0000000000000000 -3.3209949923473686e-07 -8.8856206591554269e-06 0.25491575203500849 8.8374812613644283e-08 1.1483913523312005e-08 0.37500000000000000 0.25000000000000000 0.37499966790050077 0.24999111437934082 
0.43750000000000000 0.25000000000000000 0.0000000000000000 -4.6074034631918898e-07 -1.0347297144725054e-05 0.20905351921787085 3.6268368124095524e-08 -5.2128984721982182e-08 0.43750000000000000 0.25000000000000000 0.43749953925965368 0.24998965270285531 
0.50000000000000000 0.25000000000000000 0.0000000000000000 -5.5505117114953932e-07 -1.1726678527135273e-05 0.17433621185646753 4.3373322906818039e-08 -4.0267031677162130e-08 0.50000000000000000 0.25000000000000000 0.49999944494882881 0.24998827332147286 
0.56250000000000000 0.25000000000000000 0.0000000000000000 -6.1885655861424921e-07 -1.3026357915745658e-05 0.14431659481747264 3.6768765589089946e-08 -4.6387306349805187e-08 0.56250000000000000 0.25000000000000000 0.56249938114344122 0.24998697364208425 
0.62500000000000000 0.25000000000000000 0.0000000000000000 -6.5625961077758121e-07 -1.4247660934922974e-05 0.11882109397816028 3.4612525946890288e-08 -4.8008922390787059e-08 0.62500000000000000 0.25000000000000000 0.62499934374038923 0.24998575233906509 
0.68750000000000000 0.25000000000000000 0.0000000000000000 -6.7166671748320575e-07 -1.5391489156939782e-05 0.097048317669231610 3.2216241902746800e-08 -4.9297071401436820e-08 0.68750000000000000 0.25000000000000000 0.68749932833328253 0.24998460851084306 
0.75000000000000000 0.25000000000000000 0.0000000000000000 -6.6976638033480210e-07 -1.6458875547368504e-05 0.078634781079048977 3.0641049264787908e-08 -5.1582077816337757e-08 0.75000000000000000 0.25000000000000000 0.74999933023361975 0.24998354112445262 
0.81250000000000000 0.25000000000000000 0.0000000000000000 -6.5550849815506000e-07 -1.7451378242610551e-05 0.063519465193893232 2.9466896377732363e-08 -4.4319606568755899e-08 0.81250000000000000 0.25000000000000000 0.81249934449150185 0.24998254862175742 
0.87500000000000000 0.25000000000000000 0.0000000000000000 -6.3404713667021617e-07 -1.8371078409943795e-05 0.051713348774853306 2.8739554998771966e-08 -6.9469221404716199e-08 0.87500000000000000 0.25000000000000000 0.87499936595286332 0.24998162892159007 
0.93750000000000000 0.25000000000000000 0.0000000000000000 -6.1060248557166523e-07 -1.9221007916009707e-05 0.039811783619315061 2.9420124862407162e-08 2.9648787052732997e-08 0.93750000000000000 0.25000000000000000 0.93749938939751443 0.24998077899208401 
1.0000000000000000 0.25000000000000000 0.0000000000000000 -5.8981620584441940e-07 -2.0008666829529473e-05 0.10788875624460233 0.0000000000000000 -2.9622553278357408e-07 1.0000000000000000 0.25000000000000000 0.99999941018379401 0.24997999133317048 
0.062500000000000000 0.31250000000000000 0.0000000000000000 1.0439916144519424e-08 -1.4123870128632603e-06 0.24048318116510506 -3.2468646181538779e-08 -5.2911782747870323e-07 0.062500000000000000 0.31250000000000000 0.062500010439916140 0.31249858761298716 
0.0000000000000000 0.31250000000000000 0.0000000000000000 -1.1744166712705839e-24 0.0000000000000000 -0.27298474610350509 5.1961782204764548e-22 1.9243340529117461e-06 0.0000000000000000 0.31250000000000000 -1.1744166712705839e-24 0.31250000000000000 
0.12500000000000000 0.31250000000000000 0.0000000000000000 4.2093956672114270e-08 -2.8156792246564332e-06 0.27444350900962927 -2.7390058090063727e-08 2.0149124694822578e-07 0.12500000000000000 0.31250000000000000 0.12500004209395668 0.31249718432077533 
0.18750000000000000 0.31250000000000000 0.0000000000000000 8.4566760791002692e-08 -4.2525467876097273e-06 0.32956739804624674 6.8082617367513026e-08 5.7845323391406778e-08 0.18750000000000000 0.31250000000000000 0.18750008456676079 0.31249574745321240 
0.25000000000000000 0.31250000000000000 0.0000000000000000 1.2836609548541166e-07 -5.7120650950601402e-06 0.30339076291685452 -2.1171608147517796e-07 -9.7588205855897441e-08 0.25000000000000000 0.31250000000000000 0.25000012836609548 0.31249428793490491 
0.31250000000000000 0.31250000000000000 0.0000000000000000 1.7668221273505447e-07 -7.1734601429378650e-06 0.78282146501742567 5.7922443694226065e-07 5.5195020336247818e-07 0.31250000000000000 0.31250000000000000 0.31250017668221280 0.31249282653985705 
0.37500000000000000 0.31250000000000000 0.0000000000000000 6.1092990469893625e-08 -8.7627191572904915e-06 0.24283205205260949 -8.4920662463533554e-08 -1.9871579975954196e-07 0.37500000000000000 0.31250000000000000 0.37500006109299044 0.31249123728084266 
0.43750000000000000 0.31250000000000000 0.0000000000000000 -2.1653900867264780e-08 -1.0256937872744036e-05 0.23461229043234541 6.0743793169896685e-08 4.3509545649326738e-09 0.43750000000000000 0.31250000000000000 0.43749997834609911 0.31248974306212723 
0.50000000000000000 0.31250000000000000 0.0000000000000000 -7.6703646095917928e-08 -1.1665946206090298e-05 0.19656555540221779 1.9475402498998240e-08 -4.8629402600891195e-08 0.50000000000000000 0.31250000000000000 0.49999992329635390 0.31248833405379389 
0.56250000000000000 0.31250000000000000 0.0000000000000000 -1.0638749719488497e-07 -1.2991855925566124e-05 0.16829211830475047 2.6062577181867613e-08 -4.0611948278392410e-08 0.56250000000000000 0.31250000000000000 0.56249989361250285 0.31248700814407443 
0.62500000000000000 0.31250000000000000 0.0000000000000000 -1.1384797062164482e-07 -1.4235577258873047e-05 0.14367222562470139 2.1688932655421969e-08 -4.6637239734655534e-08 0.62500000000000000 0.31250000000000000 0.62499988615202939 0.31248576442274117 
0.68750000000000000 0.31250000000000000 0.0000000000000000 -1.0266206776062565e-07 -1.5397633132103499e-05 0.12260090755792041 2.1079820687316944e-08 -4.7863453848436579e-08 0.68750000000000000 0.31250000000000000 0.68749989733793226 0.31248460236686787 
0.75000000000000000 0.31250000000000000 0.0000000000000000 -7.6873075762776486e-08 -1.6478703629104875e-05 0.10432387044103157 2.0358486760966835e-08 -5.0894377361190721e-08 0.75000000000000000 0.31250000000000000 0.74999992312692421 0.31248352129637086 
0.81250000000000000 0.31250000000000000 0.0000000000000000 -4.0939836401726586e-08 -1.7480019027043137e-05 0.088721701396462849 2.0348964072191100e-08 -4.4515031127328122e-08 0.81250000000000000 0.31250000000000000 0.81249995906016359 0.31248251998097304 
0.87500000000000000 0.31250000000000000 0.0000000000000000 2.7986229198284537e-10 -1.8403402891694636e-05 0.075624069195321830 2.1177359518671437e-08 -6.9533336338789071e-08 0.87500000000000000 0.31250000000000000 0.87500000027986224 0.31248159659710822 
0.93750000000000000 0.31250000000000000 0.0000000000000000 4.1626781843903060e-08 -1.9251838007063663e-05 0.061181312697414780 2.1150561866525823e-08 3.1348426616680750e-08 0.93750000000000000 0.31250000000000000 0.93750004162678191 0.31248074816199295 
1.0000000000000000 0.31250000000000000 0.0000000000000000 7.8174973608801415e-08 -2.0032299310631900e-05 0.15797881696784563 0.0000000000000000 -3.1735005932438574e-07 1.0000000000000000 0.31250000000000000 1.0000000781749736 0.31247996770068937 
0.062500000000000000 0.37500000000000000 0.0000000000000000 1.4941344526208090e-08 -1.4413865184082839e-06 0.17863632214853842 -6.7302192202654801e-08 -5.3570967022294865e-07 0.062500000000000000 0.37500000000000000 0.062500014941344509 0.37499855861348158 
0.0000000000000000 0.37500000000000000 0.0000000000000000 7.4123984839967607e-27 0.0000000000000000 -0.57308680706101744 -3.1177069323057245e-21 1.9522259359774162e-06 0.0000000000000000 0.37500000000000000 7.4123984839967607e-27 0.37500000000000000 
0.12500000000000000 0.37500000000000000 0.0000000000000000 6.3392060578486560e-08 -2.8652377481836048e-06 0.20976554189555477 -1.0734910893595360e-08 2.0508025476810364e-07 0.12500000000000000 0.37500000000000000 0.12500006339206057 0.37499713476225183 
0.18750000000000000 0.37500000000000000 0.0000000000000000 1.3290117922917111e-07 -4.3138528669228824e-06 0.25910630431419945 -2.9495660262861338e-08 -1.4580664767990983e-08 0.18750000000000000 0.37500000000000000 0.18750013290117920 0.37499568614713308 
0.25000000000000000 0.37500000000000000 0.0000000000000000 2.1422464163946990e-07 -5.7752166367247629e-06 0.29853245313122873 5.5565870219666793e-08 9.3587336643552609e-08 0.25000000000000000 0.37500000000000000 0.25000021422464164 0.37499422478336325 
0.31250000000000000 0.37500000000000000 0.0000000000000000 2.9772875601610024e-07 -7.2400566564013308e-06 0.27293379810173751 -1.6158541030129193e-07 -9.7441675059448986e-08 0.31250000000000000 0.37500000000000000 0.31250029772875604 0.37499275994334358 
0.37500000000000000 0.37500000000000000 0.0000000000000000 3.8716865198622949e-07 -8.6877302367010009e-06 0.63519805168227672 4.4154268192551866e-07 4.1495439812146501e-07 0.37500000000000000 0.37500000000000000 0.37500038716865197 0.37499131226976329 
0.43750000000000000 0.37500000000000000 0.0000000000000000 3.5340724625783762e-07 -1.0212744764736852e-05 0.22666401745367848 -6.4230374487761931e-08 -1.6253645490462970e-07 0.43750000000000000 0.37500000000000000 0.43750035340724619 0.37498978725523524 
0.50000000000000000 0.37500000000000000 0.0000000000000000 3.4478409090940476e-07 -1.1645052118202780e-05 0.22371385831101454 5.1411995473199468e-08 -3.6386714780596003e-09 0.50000000000000000 0.37500000000000000 0.50000034478409094 0.37498835494788180 
0.56250000000000000 0.37500000000000000 0.0000000000000000 3.5543677071009212e-07 -1.2992323917431670e-05 0.19290038619181313 1.7886002996798381e-08 -4.8406467043100395e-08 0.56250000000000000 0.37500000000000000 0.56250035543677068 0.37498700767608256 
0.62500000000000000 0.37500000000000000 0.0000000000000000 3.8375083338637443e-07 -1.4254518509840520e-05 0.17024094217227548 2.3308981932975975e-08 -4.2864832047405403e-08 0.62500000000000000 0.37500000000000000 0.62500038375083333 0.37498574548149016 
0.68750000000000000 0.37500000000000000 0.0000000000000000 4.2696595014581682e-07 -1.5431627338025747e-05 0.15019017532535658 2.0021669201725032e-08 -4.7913534045504580e-08 0.68750000000000000 0.37500000000000000 0.68750042696595015 0.37498456837266197 
0.75000000000000000 0.37500000000000000 0.0000000000000000 4.8177330155567470e-07 -1.6523804662339531e-05 0.13264935368132932 1.9951076444999097e-08 -5.0609227202013251e-08 0.75000000000000000 0.37500000000000000 0.75000048177330159 0.37498347619533767 
0.81250000000000000 0.37500000000000000 0.0000000000000000 5.4426356676426872e-07 -1.7531790501815609e-05 0.11718408495429267 1.9871912165396606e-08 -4.5781647275529623e-08 0.81250000000000000 0.37500000000000000 0.81250054426356677 0.37498246820949821 
0.87500000000000000 0.37500000000000000 0.0000000000000000 6.0996020805998608e-07 -1.8456956700770231e-05 0.10344648163301928 2.1183408899374431e-08 -6.9067203580082031e-08 0.87500000000000000 0.37500000000000000 0.87500060996020801 0.37498154304329923 