# For a description of the Tecplot format see the Tecplot User's guide.
#
Variables=x,y,z,s_u,s_v,s_p,x,y,ref_u,ref_v,u,v
Zone f=fepoint, n=289, e=512, et=quadrilateral, c=black
0.00000 0.00000 0.00000 0.0000000000000000 0.0000000000000000 1.9417606105972229 0.0000000000000000 0.0000000000000000 0.0000000000000000 0.0000000000000000 0.0000000000000000 0.0000000000000000 
0.062500000000000000 0.0000000000000000 0.0000000000000000 -1.5501351086669028e-06 -3.2424715546347413e-06 1.5495987196166450 1.4214657643326179e-06 0.0000000000000000 0.062500000000000000 0.0000000000000000 0.062498449864891330 -3.2424715546347413e-06 
0.062500000000000000 0.062500000000000000 0.0000000000000000 -3.6082796845811266e-07 -2.0484517567677450e-06 1.5932929380783838 8.3269814300018013e-07 3.9362687737057179e-07 0.062500000000000000 0.062500000000000000 0.062499639172031544 0.062497951548243232 
0.0000000000000000 0.062500000000000000 0.0000000000000000 0.0000000000000000 0.0000000000000000 1.6753292139068308 0.0000000000000000 1.1271242229703717e-06 0.0000000000000000 0.062500000000000000 0.0000000000000000 0.062500000000000000 
0.12500000000000000 0.0000000000000000 0.0000000000000000 -2.6031787917053177e-06 -5.1411727063954398e-06 1.1166627550144936 4.6741876550042051e-07 0.0000000000000000 0.12500000000000000 0.0000000000000000 0.12499739682120829 -5.1411727063954398e-06 
0.12500000000000000 0.062500000000000000 0.0000000000000000 -1.2979429312152115e-06 -4.2028731705917854e-06 1.1976456706696164 4.7599195984211674e-07 -1.6357396531034560e-07 0.12500000000000000 0.062500000000000000 0.12499870205706877 0.062495797126829407 
0.18750000000000000 0.0000000000000000 0.0000000000000000 -3.4459423300225014e-06 -6.7990692282152806e-06 0.86632338357645222 3.2308764507955513e-07 0.0000000000000000 0.18750000000000000 0.0000000000000000 0.18749655405766999 -6.7990692282152806e-06 
0.18750000000000000 0.062500000000000000 0.0000000000000000 -2.0975370186095576e-06 -6.0372863973071243e-06 0.91559278275993083 3.5959871089481910e-07 -2.8340600521595832e-08 0.18750000000000000 0.062500000000000000 0.18749790246298140 0.062493962713602691 
0.25000000000000000 0.0000000000000000 0.0000000000000000 -4.1433648852523112e-06 -8.3929871186720520e-06 0.69803830225789965 2.3813937766908591e-07 0.0000000000000000 0.25000000000000000 0.0000000000000000 0.24999585663511473 -8.3929871186720520e-06 
0.25000000000000000 0.062500000000000000 0.0000000000000000 -2.7700286597294275e-06 -7.7647350723940877e-06 0.73017054366363876 2.4127896501988770e-07 -1.5424190167813927e-08 0.25000000000000000 0.062500000000000000 0.24999722997134025 0.062492235264927608 
0.31250000000000000 0.0000000000000000 0.0000000000000000 -4.7203977127449595e-06 -9.9682870935199270e-06 0.56790717037116567 1.9667929903489507e-07 0.0000000000000000 0.31250000000000000 0.0000000000000000 0.31249527960228723 -9.9682870935199270e-06 
0.31250000000000000 0.062500000000000000 0.0000000000000000 -3.3305043224840263e-06 -9.4513720720671089e-06 0.59351804009075693 1.9321610678302454e-07 -8.2488576171461613e-09 0.31250000000000000 0.062500000000000000 0.31249666949567750 0.062490548627927932 
0.37500000000000000 0.0000000000000000 0.0000000000000000 -5.1906878572246056e-06 -1.1535546491669814e-05 0.45879668213616465 1.7157198188845440e-07 0.0000000000000000 0.37500000000000000 0.0000000000000000 0.37499480931214285 -1.1535546491669814e-05 
0.37500000000000000 0.062500000000000000 0.0000000000000000 -3.7913055811062127e-06 -1.1116134040532727e-05 0.48284992152459233 1.6251078619335826e-07 -1.3859471569683366e-08 0.37500000000000000 0.062500000000000000 0.37499620869441891 0.062488883865959466 
0.43750000000000000 0.0000000000000000 0.0000000000000000 -5.5644125594195057e-06 -1.3092920316913329e-05 0.36401450073264763 1.5184639707130687e-07 0.0000000000000000 0.43750000000000000 0.0000000000000000 0.43749443558744056 -1.3092920316913329e-05 
0.43750000000000000 0.062500000000000000 0.0000000000000000 -4.1629473419313814e-06 -1.2760397193318920e-05 0.38850047690634643 1.4055569143002941e-07 -2.3548790414694768e-08 0.43750000000000000 0.062500000000000000 0.43749583705265804 0.062487239602806673 
0.50000000000000000 0.0000000000000000 0.0000000000000000 -5.8509384796016785e-06 -1.4633713867249337e-05 0.28107267681609915 1.3374082166846738e-07 0.0000000000000000 0.50000000000000000 0.0000000000000000 0.49999414906152034 -1.4633713867249337e-05 
0.50000000000000000 0.062500000000000000 0.0000000000000000 -4.4549749102351808e-06 -1.4378549777721133e-05 0.30652310941735306 1.2215246089311686e-07 -3.4293711143072117e-08 0.50000000000000000 0.062500000000000000 0.49999554502508975 0.062485621450222288 
0.56250000000000000 0.0000000000000000 0.0000000000000000 -6.0598453588501682e-06 -1.6149605679310472e-05 0.20919339309030252 1.1563277773724510e-07 0.0000000000000000 0.56250000000000000 0.0000000000000000 0.56249394015464116 -1.6149605679310472e-05 
0.56250000000000000 0.062500000000000000 0.0000000000000000 -4.6765393565621860e-06 -1.5962437909234693e-05 0.23536830650939392 1.0509930903920120e-07 -4.4158533298514235e-08 0.56250000000000000 0.062500000000000000 0.56249532346064346 0.062484037562090762 
0.62500000000000000 0.0000000000000000 0.0000000000000000 -6.2013643207347483e-06 -1.7632321784880856e-05 0.14827894582459258 9.6853957126051927e-08 0.0000000000000000 0.62500000000000000 0.0000000000000000 0.62499379863567928 -1.7632321784880856e-05 
0.62500000000000000 0.062500000000000000 0.0000000000000000 -4.8367467725028272e-06 -1.7503547042735639e-05 0.17446758101840265 8.8545132157465760e-08 -5.1838487718420355e-08 0.62500000000000000 0.062500000000000000 0.62499516325322746 0.062482496452957274 
0.68750000000000000 0.0000000000000000 0.0000000000000000 -6.2866051238360200e-06 -1.9074721596656997e-05 0.098439930066901105 7.7389589733010240e-08 0.0000000000000000 0.68750000000000000 0.0000000000000000 0.68749371339487608 -1.9074721596656997e-05 
0.68750000000000000 0.062500000000000000 0.0000000000000000 -4.9448748163013015e-06 -1.8994298560067797e-05 0.12358971589427153 7.2362987175469377e-08 -5.6239146437572865e-08 0.68750000000000000 0.062500000000000000 0.68749505512518372 0.062481005701439933 
0.75000000000000000 0.0000000000000000 0.0000000000000000 -6.3277031308430219e-06 -2.0471742341751889e-05 0.059718255635492150 5.6984838935760778e-08 0.0000000000000000 0.75000000000000000 0.0000000000000000 0.74999367229686920 -2.0471742341751889e-05 
0.75000000000000000 0.062500000000000000 0.0000000000000000 -5.0105258361482569e-06 -2.0429083853054875e-05 0.082501638179796680 5.6580562905049994e-08 -5.6349452358601327e-08 0.75000000000000000 0.062500000000000000 0.74999498947416388 0.062479570916146955 
0.81250000000000000 0.0000000000000000 0.0000000000000000 -6.3378872849946208e-06 -2.1821483966867731e-05 0.031882166866073126 3.7716739831733248e-08 0.0000000000000000 0.81250000000000000 0.0000000000000000 0.81249366211271512 -2.1821483966867731e-05 
0.81250000000000000 0.062500000000000000 0.0000000000000000 -5.0437635685817946e-06 -2.1805402666202657e-05 0.050772973061002417 4.2606254241114181e-08 -5.1115244166477453e-08 0.81250000000000000 0.062500000000000000 0.81249495623643142 0.062478194597333787 
0.87500000000000000 0.0000000000000000 0.0000000000000000 -6.3313112893922775e-06 -2.3126605781545378e-05 0.014200507024935883 1.6733734436147476e-08 0.0000000000000000 0.87500000000000000 0.0000000000000000 0.87499366868871065 -2.3126605781545378e-05 
0.87500000000000000 0.062500000000000000 0.0000000000000000 -5.0552445684208214e-06 -2.3125374299628408e-05 0.027687669659845718 2.8081448111997667e-08 -3.9962567978716709e-08 0.87500000000000000 0.062500000000000000 0.87499494475543160 0.062476874625700375 
0.93750000000000000 0.0000000000000000 0.0000000000000000 -6.3221360379216389e-06 -2.4395851440741624e-05 0.0051815164014546748 5.1678728520570769e-09 0.0000000000000000 0.93750000000000000 0.0000000000000000 0.93749367786396209 -2.4395851440741624e-05 
0.93750000000000000 0.062500000000000000 0.0000000000000000 -5.0562849543255262e-06 -2.4397812680111280e-05 0.012406509780416788 2.3871315455930019e-08 -2.3624717194116841e-08 0.93750000000000000 0.062500000000000000 0.93749494371504571 0.062475602187319894 
1.0000000000000000 0.0000000000000000 0.0000000000000000 -6.3202507355835210e-06 -2.5642398985686743e-05 0.0018673805539416778 0.0000000000000000 0.0000000000000000 1.0000000000000000 0.0000000000000000 0.99999367974926445 -2.5642398985686743e-05 
1.0000000000000000 0.062500000000000000 0.0000000000000000 -5.0582938395133931e-06 -2.5640548801919157e-05 0.0052056597689538837 0.0000000000000000 -5.3730585897139735e-09 1.0000000000000000 0.062500000000000000 0.99999494170616055 0.062474359451198079 
0.062500000000000000 0.12500000000000000 0.0000000000000000 -1.6069553653833040e-07 -1.6032524358037664e-06 1.3047941928888747 1.0826775011952808e-07 4.6804247841298064e-07 0.062500000000000000 0.12500000000000000 0.062499839304463463 0.12499839674756420 
0.0000000000000000 0.12500000000000000 0.0000000000000000 0.0000000000000000 0.0000000000000000 1.2727513533306398 0.0000000000000000 6.2735582700635654e-07 0.0000000000000000 0.12500000000000000 0.0000000000000000 0.12500000000000000 
0.12500000000000000 0.12500000000000000 0.0000000000000000 -5.9586167026824502e-07 -3.4427025400885615e-06 1.1284478240181035 3.9790542719251415e-07 2.7459420916511922e-07 0.12500000000000000 0.12500000000000000 0.12499940413832973 0.12499655729745991 
0.18750000000000000 0.12500000000000000 0.0000000000000000 -1.2030088765946836e-06 -5.3538962998227298e-06 0.89542248870105035 3.4979112035449424e-07 9.8241911023720915e-08 0.18750000000000000 0.12500000000000000 0.18749879699112340 0.12499464610370016 
0.25000000000000000 0.12500000000000000 0.0000000000000000 -1.7662294769965285e-06 -7.1832171340841313e-06 0.71537470976042172 2.3345698801801034e-07 5.6493870545158731e-08 0.25000000000000000 0.12500000000000000 0.24999823377052302 0.12499281678286590 
0.31250000000000000 0.12500000000000000 0.0000000000000000 -2.2546906997373045e-06 -8.9659513536985847e-06 0.58267991310361100 1.8377205380795410e-07 4.2247160558048029e-08 0.31250000000000000 0.12500000000000000 0.31249774530930025 0.12499103404864630 
0.37500000000000000 0.12500000000000000 0.0000000000000000 -2.6648015428725309e-06 -1.0717953002680349e-05 0.47836183646603142 1.4954419239029406e-07 2.5252182109992504e-08 0.37500000000000000 0.12500000000000000 0.37499733519845707 0.12498928204699732 
0.43750000000000000 0.12500000000000000 0.0000000000000000 -3.0002431805873839e-06 -1.2440795048530804e-05 0.39155354585158370 1.2770917165844186e-07 9.2505883366819123e-09 0.43750000000000000 0.12500000000000000 0.43749699975681944 0.12498755920495146 
0.50000000000000000 0.12500000000000000 0.0000000000000000 -3.2670001161812505e-06 -1.4129228561665662e-05 0.31712785649747394 1.1054085832930199e-07 -5.9788351561689514e-09 0.50000000000000000 0.12500000000000000 0.49999673299988384 0.12498587077143831 
0.56250000000000000 0.12500000000000000 0.0000000000000000 -3.4718512545338033e-06 -1.5775278993350219e-05 0.25273271892080013 9.5662620789363992e-08 -1.9382102146995908e-08 0.56250000000000000 0.12500000000000000 0.56249652814874551 0.12498422472100666 
0.62500000000000000 0.12500000000000000 0.0000000000000000 -3.6218812527633645e-06 -1.7370441484144715e-05 0.19722558720745154 8.2002508362211060e-08 -3.0284546398215186e-08 0.62500000000000000 0.12500000000000000 0.62499637811874720 0.12498262955851587 
0.68750000000000000 0.12500000000000000 0.0000000000000000 -3.7243672275594946e-06 -1.8906994747861216e-05 0.14989664136747918 6.9404497450618478e-08 -3.8046392074629917e-08 0.68750000000000000 0.12500000000000000 0.68749627563277249 0.12498109300525213 
0.75000000000000000 0.12500000000000000 0.0000000000000000 -3.7868632225744153e-06 -2.0378993955405826e-05 0.11006685705430103 5.7799846571786552e-08 -4.2104665547056614e-08 0.75000000000000000 0.12500000000000000 0.74999621313677745 0.12497962100604458 
0.81250000000000000 0.12500000000000000 0.0000000000000000 -3.8174728235549570e-06 -2.1783284458605293e-05 0.076906838158035395 4.8712212718511170e-08 -4.1756140737686174e-08 0.81250000000000000 0.12500000000000000 0.81249618252717648 0.12497821671554139 
0.87500000000000000 0.12500000000000000 0.0000000000000000 -3.8253618986251259e-06 -2.3120790725385999e-05 0.049491972440340710 3.8235045124420202e-08 -3.7064201537264450e-08 0.87500000000000000 0.12500000000000000 0.87499617463810153 0.12497687920927460 
0.93750000000000000 0.12500000000000000 0.0000000000000000 -3.8215967733362823e-06 -2.4398342464973134e-05 0.027530617244201808 3.9334970767512745e-08 -2.7137917493129017e-08 0.93750000000000000 0.12500000000000000 0.93749617840322663 0.12497560165753503 
1.0000000000000000 0.12500000000000000 0.0000000000000000 -3.8202627107387755e-06 -2.5631574182927044e-05 0.014229544570996807 0.0000000000000000 -1.7386474501786881e-08 1.0000000000000000 0.12500000000000000 0.99999617973728927 0.12497436842581706 
0.062500000000000000 0.18750000000000000 0.0000000000000000 -8.5042625442602090e-08 -1.3800026676402762e-06 1.0117942963497493 3.2053285835843011e-08 4.2035192331786776e-07 0.062500000000000000 0.18750000000000000 0.062499914957374558 0.18749861999733233 
0.0000000000000000 0.18750000000000000 0.0000000000000000 0.0000000000000000 0.0000000000000000 0.95955073346066211 0.0000000000000000 4.8077983046122322e-07 0.0000000000000000 0.18750000000000000 0.0000000000000000 0.18750000000000000 
0.12500000000000000 0.18750000000000000 0.0000000000000000 -3.1136902248317863e-07 -3.0327857341861886e-06 0.94228598230115390 1.9039313133339143e-07 3.3335831206917155e-07 0.12500000000000000 0.18750000000000000 0.12499968863097753 0.18749696721426581 
0.18750000000000000 0.18750000000000000 0.0000000000000000 -6.5900393354418197e-07 -4.8461080012850780e-06 0.81004097197489011 2.3473012311734898e-07 1.8091723341206496e-07 0.18750000000000000 0.18750000000000000 0.18749934099606647 0.18749515389199869 
0.25000000000000000 0.18750000000000000 0.0000000000000000 -1.0627139463528390e-06 -6.7099059198091484e-06 0.66842272685647464 2.0541628220431317e-07 9.8148622280000617e-08 0.25000000000000000 0.18750000000000000 0.24999893728605363 0.18749329009408019 
0.31250000000000000 0.18750000000000000 0.0000000000000000 -1.4412020587141544e-06 -8.5559391811905886e-06 0.55184038387864931 1.6311791137950751e-07 6.4601291784577126e-08 0.31250000000000000 0.18750000000000000 0.31249855879794136 0.18749144406081883 
0.37500000000000000 0.18750000000000000 0.0000000000000000 -1.7698486711210455e-06 -1.0375683110460148e-05 0.45913582039943268 1.3107970457991739e-07 4.1012425234467121e-08 0.37500000000000000 0.18750000000000000 0.37499823015132888 0.18748962431688954 
0.43750000000000000 0.18750000000000000 0.0000000000000000 -2.0423426642506058e-06 -1.2163710836016180e-05 0.38300141424686135 1.1038505830166478e-07 2.1791973750289382e-08 0.43750000000000000 0.18750000000000000 0.43749795765733573 0.18748783628916399 
0.50000000000000000 0.18750000000000000 0.0000000000000000 -2.2593309098828759e-06 -1.3912429378306073e-05 0.31850652222147546 9.4661951330800590e-08 4.2241552189835198e-09 0.50000000000000000 0.18750000000000000 0.49999774066909014 0.18748608757062168 
0.56250000000000000 0.18750000000000000 0.0000000000000000 -2.4243113017756417e-06 -1.5612991099613917e-05 0.26294405469751880 8.1961282790604650e-08 -1.1239128186649548e-08 0.56250000000000000 0.18750000000000000 0.56249757568869818 0.18748438700890038 
0.62500000000000000 0.18750000000000000 0.0000000000000000 -2.5420013694828428e-06 -1.7256511023144071e-05 0.21480035160861047 7.1040035471183664e-08 -2.4310431885112037e-08 0.62500000000000000 0.18750000000000000 0.62499745799863049 0.18748274348897687 
0.68750000000000000 0.18750000000000000 0.0000000000000000 -2.6177231579245585e-06 -1.8834976657415653e-05 0.17303462013787982 6.1693163962437551e-08 -3.4581981590754833e-08 0.68750000000000000 0.18750000000000000 0.68749738227684210 0.18748116502334258 
0.75000000000000000 0.18750000000000000 0.0000000000000000 -2.6573129620674498e-06 -2.0341961809553683e-05 0.13666262063370829 5.3845249868982986e-08 -4.1738929721738234e-08 0.75000000000000000 0.18750000000000000 0.74999734268703788 0.18747965803819044 
0.81250000000000000 0.18750000000000000 0.0000000000000000 -2.6674254905754263e-06 -2.1773317695568552e-05 0.10457631303327453 4.8915017707525212e-08 -4.5290041042588049e-08 0.81250000000000000 0.18750000000000000 0.81249733257450940 0.18747822668230443 
0.87500000000000000 0.18750000000000000 0.0000000000000000 -2.6562452957107582e-06 -2.3127993618562317e-05 0.075666596034032377 4.2608466307103868e-08 -4.5491301242681828e-08 0.87500000000000000 0.18750000000000000 0.87499734375470428 0.18747687200638144 
0.93750000000000000 0.18750000000000000 0.0000000000000000 -2.6346941079556809e-06 -2.4409153256756003e-05 0.049893457833408539 4.8682113938506125e-08 -4.0434566536489716e-08 0.93750000000000000 0.18750000000000000 0.93749736530589189 0.18747559084674326 
1.0000000000000000 0.18750000000000000 0.0000000000000000 -2.6181152198188706e-06 -2.5625989787261967e-05 0.031736445185171616 0.0000000000000000 -3.8132470497253416e-08 1.0000000000000000 0.18750000000000000 0.99999738188478016 0.18747437401021275 
0.062500000000000000 0.25000000000000000 0.0000000000000000 -4.6356898196703540e-08 -1.2661662523655007e-06 0.77009610308218568 -2.6283120601117379e-08 3.4002005956616799e-07 0.062500000000000000 0.25000000000000000 0.062499953643101798 0.24999873383374763 
0.0000000000000000 0.25000000000000000 0.0000000000000000 0.0000000000000000 0.0000000000000000 0.71425916503672404 0.0000000000000000 3.7718770604626546e-07 0.0000000000000000 0.25000000000000000 0.0000000000000000 0.25000000000000000 
0.12500000000000000 0.25000000000000000 0.0000000000000000 -1.6145300339642568e-07 -2.8086452056195068e-06 0.74582688433648403 9.2542487480561352e-08 2.9782546010438962e-07 0.12500000000000000 0.25000000000000000 0.12499983854699660 0.24999719135479434 
0.18750000000000000 0.25000000000000000 0.0000000000000000 -3.4879337046792624e-07 -4.5415605709576298e-06 0.67826361353642806 1.2882816912831334e-07 2.2413054106129211e-07 0.18750000000000000 0.25000000000000000 0.18749965120662956 0.24999545843942905 
0.25000000000000000 0.25000000000000000 0.0000000000000000 -5.8654203584058833e-07 -6.3782117724641005e-06 0.59001420902284107 1.4670546670020276e-07 1.4881276022035919e-07 0.25000000000000000 0.25000000000000000 0.24999941345796417 0.24999362178822751 
0.31250000000000000 0.25000000000000000 0.0000000000000000 -8.3664365916302308e-07 -8.2501225462453196e-06 0.50261759605304113 1.2916576887528670e-07 9.3019255280395308e-08 0.31250000000000000 0.25000000000000000 0.31249916335634081 0.24999174987745376 
0.37500000000000000 0.25000000000000000 0.0000000000000000 -1.0641018219616747e-06 -1.0114405478787231e-05 0.42761603325373893 1.0756260824238612e-07 6.0246774619993109e-08 0.37500000000000000 0.25000000000000000 0.37499893589817807 0.24998988559452121 
0.43750000000000000 0.25000000000000000 0.0000000000000000 -1.2544588487668897e-06 -1.1951790444741914e-05 0.36503135810323700 9.0467042958102358e-08 3.6086829213873747e-08 0.43750000000000000 0.25000000000000000 0.43749874554115126 0.24998804820955525 
0.50000000000000000 0.25000000000000000 0.0000000000000000 -1.4032987774418777e-06 -1.3749129382797633e-05 0.31214045331046658 7.7262860647526609e-08 1.6018339435096645e-08 0.50000000000000000 0.25000000000000000 0.49999859670122254 0.24998625087061721 
0.56250000000000000 0.25000000000000000 0.0000000000000000 -1.5108813024897745e-06 -1.5495232598473471e-05 0.26670367432772929 6.6942635741900944e-08 -1.1857992404219454e-09 0.56250000000000000 0.25000000000000000 0.56249848911869738 0.24998450476740156 
0.62500000000000000 0.25000000000000000 0.0000000000000000 -1.5796483912168516e-06 -1.7180155201512928e-05 0.22720744691387118 5.8517317643947268e-08 -1.5944810855647839e-08 0.62500000000000000 0.25000000000000000 0.62499842035160880 0.24998281984479845 
0.68750000000000000 0.25000000000000000 0.0000000000000000 -1.6131416789586400e-06 -1.8795253503839904e-05 0.19250835469687266 5.1829329728158348e-08 -2.8272479583527923e-08 0.68750000000000000 0.25000000000000000 0.68749838685832099 0.24998120474649618 
0.75000000000000000 0.25000000000000000 0.0000000000000000 -1.6156930382626698e-06 -2.0333382709110727e-05 0.16150566253676771 4.6828498734278913e-08 -3.8195841071745748e-08 0.75000000000000000 0.25000000000000000 0.74999838430696186 0.24997966661729090 
0.81250000000000000 0.25000000000000000 0.0000000000000000 -1.5926601808906545e-06 -2.1789114896288773e-05 0.13297448217088439 4.4801494771626081e-08 -4.5514428605571234e-08 0.81250000000000000 0.25000000000000000 0.81249840733981926 0.24997821088510372 
0.87500000000000000 0.25000000000000000 0.0000000000000000 -1.5511621558203420e-06 -2.3158967923457599e-05 0.10569157389716759 4.1692060614122921e-08 -5.0733925717945360e-08 0.87500000000000000 0.25000000000000000 0.87499844883784406 0.24997684103207654 
0.93750000000000000 0.25000000000000000 0.0000000000000000 -1.5013545284898084e-06 -2.4441652543415368e-05 0.079597169419564531 5.0727369729180770e-08 -5.1605795528792342e-08 0.93750000000000000 0.25000000000000000 0.93749849864547141 0.24997555834745658 
1.0000000000000000 0.25000000000000000 0.0000000000000000 -1.4580974084135797e-06 -2.5638401921210985e-05 0.058635218281032658 0.0000000000000000 -5.5559834294622976e-08 1.0000000000000000 0.25000000000000000 0.99999854190259152 0.24997436159807881 
0.062500000000000000 0.31250000000000000 0.0000000000000000 -2.3166956445217657e-08 -1.2142909059902884e-06 0.56842215363987758 -5.3564712555948173e-08 2.9434126572628502e-07 0.062500000000000000 0.31250000000000000 0.062499976833043557 0.31249878570909401 
0.0000000000000000 0.31250000000000000 0.0000000000000000 0.0000000000000000 0.0000000000000000 0.51100726353795578 0.0000000000000000 3.1692118513095327e-07 0.0000000000000000 0.31250000000000000 0.0000000000000000 0.31250000000000000 
0.12500000000000000 0.31250000000000000 0.0000000000000000 -7.0007256977468625e-08 -2.6978457266446877e-06 0.56864196200308337 4.3133214275988449e-08 2.6659763890457377e-07 0.12500000000000000 0.31250000000000000 0.12499992999274302 0.31249730215427335 
0.18750000000000000 0.31250000000000000 0.0000000000000000 -1.5124007866760751e-07 -4.3802986899580781e-06 0.53865294649205897 6.4303675021707962e-08 2.1785456393721413e-07 0.18750000000000000 0.31250000000000000 0.18749984875992134 0.31249561970131007 
0.25000000000000000 0.31250000000000000 0.0000000000000000 -2.6188790983143707e-07 -6.1891110210427860e-06 0.49147461118528457 8.3696771337192422e-08 1.6409298513631697e-07 0.25000000000000000 0.31250000000000000 0.24999973811209017 0.31249381088897898 
0.31250000000000000 0.31250000000000000 0.0000000000000000 -3.8603993555608535e-07 -8.0616410195972707e-06 0.43747824301481425 8.5913335111370665e-08 1.1373665877825699e-07 0.31250000000000000 0.31250000000000000 0.31249961396006443 0.31249193835898043 
0.37500000000000000 0.31250000000000000 0.0000000000000000 -5.0412868637915519e-07 -9.9497481494230564e-06 0.38525060673517092 7.8093087975265008e-08 7.5381591478668501e-08 0.37500000000000000 0.31250000000000000 0.37499949587131365 0.31249005025185056 
0.43750000000000000 0.31250000000000000 0.0000000000000000 -6.0074305822670609e-07 -1.1820890703484378e-05 0.33916856599005052 6.7328973520897762e-08 4.7025005606222325e-08 0.43750000000000000 0.31250000000000000 0.43749939925694176 0.31248817910929644 
0.50000000000000000 0.31250000000000000 0.0000000000000000 -6.6886202913735187e-07 -1.3654742424898248e-05 0.29953599577092033 5.7902721975092245e-08 2.4548402051960225e-08 0.50000000000000000 0.31250000000000000 0.49999933113797085 0.31248634525757518 
0.56250000000000000 0.31250000000000000 0.0000000000000000 -7.0652197102706440e-07 -1.5436663145806520e-05 0.26535571809210939 5.0258234489432532e-08 5.6600370530205742e-09 0.56250000000000000 0.31250000000000000 0.56249929347802896 0.31248456333685420 
0.62500000000000000 0.31250000000000000 0.0000000000000000 -7.1441253098498319e-07 -1.7155048245618676e-05 0.23555359891116057 4.4167054081854152e-08 -1.0610333571766316e-08 0.62500000000000000 0.31250000000000000 0.62499928558746898 0.31248284495175443 
0.68750000000000000 0.31250000000000000 0.0000000000000000 -6.9461623739454447e-07 -1.8800317806606128e-05 0.20914952484821384 3.9635225960295876e-08 -2.4695889219241369e-08 0.68750000000000000 0.31250000000000000 0.68749930538376258 0.31248119968219340 
0.75000000000000000 0.31250000000000000 0.0000000000000000 -6.5014198381931821e-07 -2.0364453133532971e-05 0.18512458034806609 3.6713949903366833e-08 -3.6925565324241102e-08 0.75000000000000000 0.31250000000000000 0.74999934985801620 0.31247963554686647 
0.81250000000000000 0.31250000000000000 0.0000000000000000 -5.8504665876262872e-07 -2.1840664507708198e-05 0.16230030075368013 3.6524789329353078e-08 -4.7371148796475399e-08 0.81250000000000000 0.31250000000000000 0.81249941495334121 0.31247815933549233 
0.87500000000000000 0.31250000000000000 0.0000000000000000 -5.0507392374681635e-07 -2.3223005095025172e-05 0.13942729174509974 3.5738854610451635e-08 -5.6722803382999782e-08 0.87500000000000000 0.31250000000000000 0.87499949492607609 0.31247677699490500 
0.93750000000000000 0.31250000000000000 0.0000000000000000 -4.1880462586388786e-07 -2.4505785245801298e-05 0.11621327397498349 4.6227734795899676e-08 -6.2535676648929068e-08 0.93750000000000000 0.31250000000000000 0.93749958119537424 0.31247549421475412 
1.0000000000000000 0.31250000000000000 0.0000000000000000 -3.3906590739195116e-07 -2.5682602235217183e-05 0.094593001119538653 0.0000000000000000 -7.1748307009166607e-08 1.0000000000000000 0.31250000000000000 0.99999966093409265 0.31247431739776477 
0.062500000000000000 0.37500000000000000 0.0000000000000000 -7.5511410951283773e-09 -1.2010940965044744e-06 0.39270629103454485 -7.4867578012971830e-08 2.6466215308483571e-07 0.062500000000000000 0.37500000000000000 0.062499992448858906 0.37499879890590343 
0.0000000000000000 0.37500000000000000 0.0000000000000000 0.0000000000000000 0.0000000000000000 0.33284329464934076 0.0000000000000000 2.8279400090790652e-07 0.0000000000000000 0.37500000000000000 0.0000000000000000 0.37500000000000000 
0.12500000000000000 0.37500000000000000 0.0000000000000000 -7.2781396282056675e-09 -2.6630951193486821e-06 0.41020012218435142 6.8402416588219735e-09 2.4070335493230452e-07 0.12500000000000000 0.37500000000000000 0.12499999272186037 0.37499733690488063 
0.18750000000000000 0.37500000000000000 0.0000000000000000 -1.1152832301025208e-08 -4.3236218046792453e-06 0.40563323122908201 1.8843249082369896e-08 2.0415709150440569e-07 0.18750000000000000 0.37500000000000000 0.18749998884716770 0.37499567637819536 
0.25000000000000000 0.37500000000000000 0.0000000000000000 -2.2166004343290743e-08 -6.1180855683118878e-06 0.38800427117719466 3.6321107745668259e-08 1.6394873268589701e-07 0.25000000000000000 0.37500000000000000 0.24999997783399566 0.37499388191443167 
0.31250000000000000 0.37500000000000000 0.0000000000000000 -3.6587063116452027e-08 -7.9888099174717363e-06 0.36275570399661761 4.3460655777616778e-08 1.2285877578976135e-07 0.31250000000000000 0.37500000000000000 0.31249996341293690 0.37499201119008246 
0.37500000000000000 0.37500000000000000 0.0000000000000000 -4.6870967091483995e-08 -9.8883599062293233e-06 0.33448348358687818 4.4905787623065783e-08 8.5910130817479029e-08 0.37500000000000000 0.37500000000000000 0.37499995312903289 0.37499011164009377 
0.43750000000000000 0.37500000000000000 0.0000000000000000 -4.4891523055136200e-08 -1.1780580502587325e-05 0.30692435257555933 4.1501404449478694e-08 5.5595673000856921e-08 0.43750000000000000 0.37500000000000000 0.43749995510847700 0.37498821941949739 
0.50000000000000000 0.37500000000000000 0.0000000000000000 -2.4861160439991954e-08 -1.3639675517897199e-05 0.28202342531016950 3.6729661256292158e-08 3.1215992497621901e-08 0.50000000000000000 0.37500000000000000 0.49999997513883959 0.37498636032448213 
0.56250000000000000 0.37500000000000000 0.0000000000000000 1.5629344711604467e-08 -1.5447590729044734e-05 0.26013472738182625 3.2176964692508944e-08 1.0864496718207220e-08 0.56250000000000000 0.37500000000000000 0.56250001562934482 0.37498455240927098 
0.62500000000000000 0.37500000000000000 0.0000000000000000 7.6754382397600187e-08 -1.7190902856621496e-05 0.24091952697255115 2.8413714910705933e-08 -6.6552490905941969e-09 0.62500000000000000 0.37500000000000000 0.62500007675438241 0.37498280909714338 
0.68750000000000000 0.37500000000000000 0.0000000000000000 1.5742363429032464e-07 -1.8859016245173962e-05 0.22379884603169894 2.5702977596230146e-08 -2.2103574243293423e-08 0.68750000000000000 0.37500000000000000 0.68750015742363424 0.37498114098375485 
0.75000000000000000 0.37500000000000000 0.0000000000000000 2.5574436218906446e-07 -2.0443076704236418e-05 0.20802098209713285 2.4270121237080767e-08 -3.6065218333051577e-08 0.75000000000000000 0.37500000000000000 0.75000025574436224 0.37497955692329571 
0.81250000000000000 0.37500000000000000 0.0000000000000000 3.6899654007276614e-07 -2.1935109352424626e-05 0.19260564316126097 2.5057449452151125e-08 -4.8873173041145210e-08 0.81250000000000000 0.37500000000000000 0.81250036899654010 0.37497806489064756 
0.87500000000000000 0.37500000000000000 0.0000000000000000 4.9315273817714092e-07 -2.3327075725046952e-05 0.17636793187456454 2.5843617557554031e-08 -6.1324332046043547e-08 0.87500000000000000 0.37500000000000000 0.87500049315273820 0.37497667292427495 