# For a description of the Tecplot format see the Tecplot User's guide.
#
Variables=x,y,z,s_u,s_v,s_p,x,y,ref_u,ref_v,u,v
Zone f=fepoint, n=1089, e=2048, et=quadrilateral, c=black
0.00000 0.00000 0.00000 0.0000000000000000 0.0000000000000000 2.5654022405660628 0.0000000000000000 0.0000000000000000 0.0000000000000000 0.0000000000000000 0.0000000000000000 0.0000000000000000 
0.031250000000000000 0.0000000000000000 0.0000000000000000 -1.0714712410179298e-06 -2.2693951632868491e-06 2.1279291416474169 3.1176425615149542e-06 0.0000000000000000 0.031250000000000000 0.0000000000000000 0.031248928528758980 -2.2693951632868491e-06 
0.031250000000000000 0.031250000000000000 0.0000000000000000 -2.7889292003633235e-07 -1.4438151655033101e-06 2.2227455327820622 1.8694528809595439e-06 5.2384512528356457e-07 0.031250000000000000 0.031250000000000000 0.031249721107079964 0.031248556184834495 
0.0000000000000000 0.031250000000000000 0.0000000000000000 0.0000000000000000 0.0000000000000000 2.3482072385550428 0.0000000000000000 1.9996802993814480e-06 0.0000000000000000 0.031250000000000000 0.0000000000000000 0.031250000000000000 
0.062500000000000000 0.0000000000000000 0.0000000000000000 -1.7863413767298931e-06 -3.5244650214804705e-06 1.6296132386520978 1.1283019752395430e-06 0.0000000000000000 0.062500000000000000 0.0000000000000000 0.062498213658623271 -3.5244650214804705e-06 
0.062500000000000000 0.031250000000000000 0.0000000000000000 -9.5467101751177704e-07 -2.8570666664660355e-06 1.7651834007779013 1.1719454438510633e-06 -6.2547299579294625e-07 0.062500000000000000 0.031250000000000000 0.062499045328982490 0.031247142933333531 
0.093750000000000000 0.0000000000000000 0.0000000000000000 -2.3712330399961666e-06 -4.5417669992874259e-06 1.3349739937393172 7.2819568988284307e-07 0.0000000000000000 0.093750000000000000 0.0000000000000000 0.093747628766960009 -4.5417669992874259e-06 
0.093750000000000000 0.031250000000000000 0.0000000000000000 -1.5494624413453012e-06 -3.9754807948093797e-06 1.4272695782373699 8.6386355568929533e-07 -3.1677306072783231e-07 0.093750000000000000 0.031250000000000000 0.093748450537558661 0.031246024519205190 
0.12500000000000000 0.0000000000000000 0.0000000000000000 -2.8837111177968818e-06 -5.4631462224596590e-06 1.1474823515860988 4.8335991989091950e-07 0.0000000000000000 0.12500000000000000 0.0000000000000000 0.12499711628888220 -5.4631462224596590e-06 
0.12500000000000000 0.031250000000000000 0.0000000000000000 -2.0772273482979289e-06 -4.9649099972486112e-06 1.2081518814195191 5.5316818402870314e-07 -2.1787962133764339e-07 0.12500000000000000 0.031250000000000000 0.12499792277265169 0.031245035090002756 
0.15625000000000000 0.0000000000000000 0.0000000000000000 -3.3457470925449833e-06 -6.3375351938755864e-06 1.0148852702212932 3.5964972387702344e-07 0.0000000000000000 0.15625000000000000 0.0000000000000000 0.15624665425290746 -6.3375351938755864e-06 
0.15625000000000000 0.031250000000000000 0.0000000000000000 -2.5512134152758556e-06 -5.8902255891724224e-06 1.0566538409241004 4.0929064702414017e-07 -1.3504283654694549e-07 0.15625000000000000 0.031250000000000000 0.15624744878658473 0.031244109774410830 
0.18750000000000000 0.0000000000000000 0.0000000000000000 -3.7673923488538667e-06 -7.1873379457385743e-06 0.91185320855221486 2.9333683698362767e-07 0.0000000000000000 0.18750000000000000 0.0000000000000000 0.18749623260765114 -7.1873379457385743e-06 
0.18750000000000000 0.031250000000000000 0.0000000000000000 -2.9803269839067223e-06 -6.7815375676970579e-06 0.94255043122031346 3.2385394974260920e-07 -8.7949428520951659e-08 0.18750000000000000 0.031250000000000000 0.18749701967301610 0.031243218462432304 
0.21875000000000000 0.0000000000000000 0.0000000000000000 -4.1538720453597453e-06 -8.0242482917419824e-06 0.82574937416059946 2.5426957192391680e-07 0.0000000000000000 0.21875000000000000 0.0000000000000000 0.21874584612795464 -8.0242482917419824e-06 
0.21875000000000000 0.031250000000000000 0.0000000000000000 -3.3705937783919298e-06 -7.6543957561262547e-06 0.84989284310934432 2.7276068106151968e-07 -5.9789402674446698e-08 0.21875000000000000 0.031250000000000000 0.21874662940622161 0.031242345604243878 
0.25000000000000000 0.0000000000000000 0.0000000000000000 -4.5082268969054541e-06 -8.8547129631774727e-06 0.75006933293492661 2.2947829861599069e-07 0.0000000000000000 0.25000000000000000 0.0000000000000000 0.24999549177310310 -8.8547129631774727e-06 
0.25000000000000000 0.031250000000000000 0.0000000000000000 -3.7261980953527858e-06 -8.5172653600615796e-06 0.77029892469361938 2.4010510705320323e-07 -4.3638835793207016e-08 0.25000000000000000 0.031250000000000000 0.24999627380190462 0.031241482734639944 
0.28125000000000000 0.0000000000000000 0.0000000000000000 -4.8324407882562569e-06 -9.6822639272076626e-06 0.68133931120889779 2.1228686478024968e-07 0.0000000000000000 0.28125000000000000 0.0000000000000000 0.28124516755921175 -9.6822639272076626e-06 
0.28125000000000000 0.031250000000000000 0.0000000000000000 -4.0501541473124709e-06 -9.3747761537929632e-06 0.69924259693024693 2.1765859821173280e-07 -3.5043102353584584e-08 0.28125000000000000 0.031250000000000000 0.28124594984585266 0.031240625223846210 
0.31250000000000000 0.0000000000000000 0.0000000000000000 -5.1279697553725509e-06 -1.0508679743787153e-05 0.61764202331260398 1.9925682199225527e-07 0.0000000000000000 0.31250000000000000 0.0000000000000000 0.31249487203024462 -1.0508679743787153e-05 
0.31250000000000000 0.031250000000000000 0.0000000000000000 -4.3447342534734869e-06 -1.0229319443685459e-05 0.63420159953198474 2.0109359695543236e-07 -3.1337671479059789e-08 0.31250000000000000 0.031250000000000000 0.31249565526574652 0.031239770680556316 
0.34375000000000000 0.0000000000000000 0.0000000000000000 -5.3960083352984867e-06 -1.1334629143364889e-05 0.55789560154966322 1.8852644417303110e-07 0.0000000000000000 0.34375000000000000 0.0000000000000000 0.34374460399166468 -1.1334629143364889e-05 
0.34375000000000000 0.031250000000000000 0.0000000000000000 -4.6117440818746263e-06 -1.1081908606644960e-05 0.57373119190363198 1.8797116141581087e-07 -3.0852310212268452e-08 0.34375000000000000 0.031250000000000000 0.34374538825591811 0.031238918091393352 
0.37500000000000000 0.0000000000000000 0.0000000000000000 -5.6376314266203639e-06 -1.2160057215729657e-05 0.50148683481981671 1.7903911409393551e-07 0.0000000000000000 0.37500000000000000 0.0000000000000000 0.37499436236857336 -1.2160057215729657e-05 
0.37500000000000000 0.031250000000000000 0.0000000000000000 -4.8527007911459160e-06 -1.1932678858457031e-05 0.51699027221954086 1.7687596965708824e-07 -3.2491499463939612e-08 0.37500000000000000 0.031250000000000000 0.37499514729920885 0.031238067321141542 
0.40625000000000000 0.0000000000000000 0.0000000000000000 -5.8538732089617494e-06 -1.2984431438365287e-05 0.44807651729610271 1.7017240936197527e-07 0.0000000000000000 0.40625000000000000 0.0000000000000000 0.40624414612679099 -1.2984431438365287e-05 
0.40625000000000000 0.031250000000000000 0.0000000000000000 -5.0689490598509327e-06 -1.2781195545583422e-05 0.46349006212998117 1.6695423950874130e-07 -3.5507024490823924e-08 0.40625000000000000 0.031250000000000000 0.40624493105094023 0.031237218804454413 
0.43750000000000000 0.0000000000000000 0.0000000000000000 -6.0457725453722376e-06 -1.3806905935265237e-05 0.39749154490891475 1.6154695054560954e-07 0.0000000000000000 0.43750000000000000 0.0000000000000000 0.43749395422745457 -1.3806905935265237e-05 
0.43750000000000000 0.031250000000000000 0.0000000000000000 -5.2617371421533157e-06 -1.3626653976671410e-05 0.41295518448142260 1.5767431505168078e-07 -3.9367880057666083e-08 0.43750000000000000 0.031250000000000000 0.43749473826285784 0.031236373346023329 
0.46875000000000000 0.0000000000000000 0.0000000000000000 -6.2143998281300661e-06 -1.4626435454252220e-05 0.34966262241595342 1.5292467655711384e-07 0.0000000000000000 0.46875000000000000 0.0000000000000000 0.46874378560017188 -1.4626435454252220e-05 
0.46875000000000000 0.031250000000000000 0.0000000000000000 -5.4322670480688913e-06 -1.4468014419393582e-05 0.36524362810048677 1.4869653411436650e-07 -4.3683305905910845e-08 0.46875000000000000 0.031250000000000000 0.46874456773295187 0.031235531985580604 
0.50000000000000000 0.0000000000000000 0.0000000000000000 -6.3608733294294352e-06 -1.5441857222887160e-05 0.30458700861070792 1.4415210158181640e-07 0.0000000000000000 0.50000000000000000 0.0000000000000000 0.49999363912667055 -1.5441857222887160e-05 
0.50000000000000000 0.031250000000000000 0.0000000000000000 -5.5817279102003623e-06 -1.5304096678478961e-05 0.32029883114592406 1.3979941664299152e-07 -4.8154746212476648e-08 0.50000000000000000 0.031250000000000000 0.49999441827208985 0.031234695903321518 
0.53125000000000000 0.0000000000000000 0.0000000000000000 -6.4863696437976725e-06 -1.6251951805398061e-05 0.26230554306743309 1.3512748422714745e-07 0.0000000000000000 0.53125000000000000 0.0000000000000000 0.53124351363035616 -1.6251951805398061e-05 
0.53125000000000000 0.031250000000000000 0.0000000000000000 -5.7113184122494624e-06 -1.6133648757285983e-05 0.27811996931186028 1.3083652859011391e-07 -5.2544173526133042e-08 0.53125000000000000 0.031250000000000000 0.53124428868158791 0.031233866351242711 
0.56250000000000000 0.0000000000000000 0.0000000000000000 -6.5921309566531378e-06 -1.7055490190301980e-05 0.22288802061810939 1.2578150097121880e-07 0.0000000000000000 0.56250000000000000 0.0000000000000000 0.56249340786904334 -1.7055490190301980e-05 
0.56250000000000000 0.031250000000000000 0.0000000000000000 -5.8222621106684345e-06 -1.6955398756658460e-05 0.23874286100087713 1.2171084945374476e-07 -5.6651982778738260e-08 0.56250000000000000 0.031250000000000000 0.56249417773788934 0.031233044601243345 
0.59375000000000000 0.0000000000000000 0.0000000000000000 -6.6794708169703637e-06 -1.7851272121912225e-05 0.18642340804518051 1.1606618652242700e-07 0.0000000000000000 0.59375000000000000 0.0000000000000000 0.59374332052918299 -1.7851272121912225e-05 
0.59375000000000000 0.031250000000000000 0.0000000000000000 -5.9158181406151792e-06 -1.7768096189721698e-05 0.20222709518406132 1.1235984881271193e-07 -6.0300660224183525e-08 0.59375000000000000 0.031250000000000000 0.59374408418185942 0.031232231903810279 
0.62500000000000000 0.0000000000000000 0.0000000000000000 -6.7497794314553554e-06 -1.8638159422214033e-05 0.15301262998781079 1.0594951057324478e-07 0.0000000000000000 0.62500000000000000 0.0000000000000000 0.62499325022056851 -1.8638159422214033e-05 
0.62500000000000000 0.031250000000000000 0.0000000000000000 -5.9932888876190124e-06 -1.8570547223910591e-05 0.16864662953468110 1.0274771853737124e-07 -6.3322079485494270e-08 0.62500000000000000 0.031250000000000000 0.62499400671111249 0.031231429452776089 
0.65625000000000000 0.0000000000000000 0.0000000000000000 -6.8045290234363166e-06 -1.9415107358302966e-05 0.12276225375111473 9.5414567403330066e-08 0.0000000000000000 0.65625000000000000 0.0000000000000000 0.65624319547097654 -1.9415107358302966e-05 
0.65625000000000000 0.031250000000000000 0.0000000000000000 -6.0560255550978786e-06 -1.9361647464044011e-05 0.13808194725911718 9.2863039099002797e-08 -6.5547257004122394e-08 0.65625000000000000 0.031250000000000000 0.65624394397444485 0.031230638352535953 
0.68750000000000000 0.0000000000000000 0.0000000000000000 -6.8452793842016151e-06 -2.0181196797915599e-05 0.095777651297922109 8.4462701445969988e-08 0.0000000000000000 0.68750000000000000 0.0000000000000000 0.68749315472061578 -2.0181196797915599e-05 
0.68750000000000000 0.031250000000000000 0.0000000000000000 -6.1054320545434001e-06 -2.0140415485650002e-05 0.11061227118729396 8.2720921453829806e-08 -6.6798108106151236e-08 0.68750000000000000 0.031250000000000000 0.68749389456794541 0.031229859584514349 
0.71875000000000000 0.0000000000000000 0.0000000000000000 -6.8736832862361109e-06 -2.0935669858132516e-05 0.072154271276365436 7.3122440682561919e-08 0.0000000000000000 0.71875000000000000 0.0000000000000000 0.71874312631671378 -2.0935669858132516e-05 
0.71875000000000000 0.031250000000000000 0.0000000000000000 -6.1429672167266213e-06 -2.0906030272491968e-05 0.086306521706349962 7.2370043608397193e-08 -6.6881377966026458e-08 0.71875000000000000 0.031250000000000000 0.71874385703278332 0.031229093969727510 
0.75000000000000000 0.0000000000000000 0.0000000000000000 -6.8914908101692265e-06 -2.1677971928075822e-05 0.051965618363864707 6.1459558758444796e-08 0.0000000000000000 0.75000000000000000 0.0000000000000000 0.74999310850918988 -2.1677971928075822e-05 
0.75000000000000000 0.031250000000000000 0.0000000000000000 -6.1701449169084457e-06 -2.1657875925759401e-05 0.065211820977706988 6.1901857633415915e-08 -6.5585802953506854e-08 0.75000000000000000 0.031250000000000000 0.74999382985508312 0.031228342124074240 
0.78125000000000000 0.0000000000000000 0.0000000000000000 -6.9005506982690390e-06 -2.2407803278842132e-05 0.035246650998736966 4.9607581223970082e-08 0.0000000000000000 0.78125000000000000 0.0000000000000000 0.78124309944930170 -2.2407803278842132e-05 
0.78125000000000000 0.031250000000000000 0.0000000000000000 -6.1885312870434407e-06 -2.2395597429482304e-05 0.047338627005033808 5.1470019038366470e-08 -6.2684755338955659e-08 0.78125000000000000 0.031250000000000000 0.78124381146871291 0.031227604402570521 
0.81250000000000000 0.0000000000000000 0.0000000000000000 -6.9028052908709325e-06 -2.3125183798898942e-05 0.021971608547316831 3.7755907208725056e-08 0.0000000000000000 0.81250000000000000 0.0000000000000000 0.81249309719470908 -2.3125183798898942e-05 
0.81250000000000000 0.031250000000000000 0.0000000000000000 -6.1997376985723760e-06 -2.3119171739958700e-05 0.032642248063844255 4.1284813862680179e-08 -5.7948525536698792e-08 0.81250000000000000 0.031250000000000000 0.81249380026230156 0.031226880828260039 
0.84375000000000000 0.0000000000000000 0.0000000000000000 -6.9002729984019564e-06 -2.3830534361981086e-05 0.012026936665444835 2.6301194155688210e-08 0.0000000000000000 0.84375000000000000 0.0000000000000000 0.84374309972700157 -2.3830534361981086e-05 
0.84375000000000000 0.031250000000000000 0.0000000000000000 -6.2054075778934154e-06 -2.3828998731978852e-05 0.021002530516262729 3.1688229029371366e-08 -5.1177751660170915e-08 0.84375000000000000 0.031250000000000000 0.84374379459242210 0.031226171001268021 
0.87500000000000000 0.0000000000000000 0.0000000000000000 -6.8950075260641734e-06 -2.4524776489596279e-05 0.0051806946492720914 1.5504649186517363e-08 0.0000000000000000 0.87500000000000000 0.0000000000000000 0.87499310499247385 -2.4524776489596279e-05 
0.87500000000000000 0.031250000000000000 0.0000000000000000 -6.2071939901636875e-06 -2.4526015606121489e-05 0.012206133057693682 2.2906219964136341e-08 -4.2256956738784808e-08 0.87500000000000000 0.031250000000000000 0.87499379280600997 0.031225473984393879 
0.90625000000000000 0.0000000000000000 0.0000000000000000 -6.8890148906504316e-06 -2.5209445426923626e-05 0.0010557105694414322 6.6293250690177148e-09 0.0000000000000000 0.90625000000000000 0.0000000000000000 0.90624311098510935 -2.5209445426923626e-05 
0.90625000000000000 0.031250000000000000 0.0000000000000000 -6.2067227996728877e-06 -2.5211834558818587e-05 0.0059438424671618513 1.5766035065622135e-08 -3.1356997350239491e-08 0.90625000000000000 0.031250000000000000 0.90624379327720028 0.031224788165441181 
0.93750000000000000 0.0000000000000000 0.0000000000000000 -6.8840913746575450e-06 -2.5886786284691124e-05 -0.00090280812513237262 -9.1886147915623850e-10 0.0000000000000000 0.93750000000000000 0.0000000000000000 0.93749311590862539 -2.5886786284691124e-05 
0.93750000000000000 0.031250000000000000 0.0000000000000000 -6.2055291228893546e-06 -2.5888889559131255e-05 0.0018269129909745674 9.1205109645231705e-09 -1.8899850418406429e-08 0.93750000000000000 0.031250000000000000 0.93749379447087711 0.031224111110440867 
0.96875000000000000 0.0000000000000000 0.0000000000000000 -6.8815012481138840e-06 -2.6559719629504632e-05 -0.0014743644720452266 -3.0280565777614975e-09 0.0000000000000000 0.96875000000000000 0.0000000000000000 0.96874311849875172 -2.6559719629504632e-05 
0.96875000000000000 0.031250000000000000 0.0000000000000000 -6.2049352100800312e-06 -2.6560542255737450e-05 -0.00057378611846929195 7.3898650571212842e-09 -7.4401459891995807e-09 0.96875000000000000 0.031250000000000000 0.96874379506478991 0.031223439457744261 
1.0000000000000000 0.0000000000000000 0.0000000000000000 -6.8812411501288285e-06 -2.7231197194003843e-05 -0.0017296526830932269 0.0000000000000000 0.0000000000000000 1.0000000000000000 0.0000000000000000 0.99999311875884989 -2.7231197194003843e-05 
1.0000000000000000 0.031250000000000000 0.0000000000000000 -6.2057434958893046e-06 -2.7230955953407872e-05 -0.0014672550874664750 0.0000000000000000 2.9424529856680586e-09 1.0000000000000000 0.031250000000000000 0.99999379425650414 0.031222769044046594 
0.031250000000000000 0.062500000000000000 0.0000000000000000 -1.4150732814832897e-07 -1.1088538154142869e-06 1.9872814572997788 4.0899318879421900e-07 8.3679659909755927e-07 0.031250000000000000 0.062500000000000000 0.031249858492671857 0.062498891146184586 
0.0000000000000000 0.062500000000000000 0.0000000000000000 0.0000000000000000 0.0000000000000000 1.9894905683302362 0.0000000000000000 1.1569426389054454e-06 0.0000000000000000 0.062500000000000000 0.0000000000000000 0.062500000000000000 
0.062500000000000000 0.062500000000000000 0.0000000000000000 -4.9702737977577807e-07 -2.2871968132239992e-06 1.7545582951489844 9.9439384399284624e-07 3.9803408382377719e-07 0.062500000000000000 0.062500000000000000 0.062499502972620226 0.062497712803186778 
0.093750000000000000 0.062500000000000000 0.0000000000000000 -9.8648654560154184e-07 -3.4369520408999983e-06 1.4633766174204654 8.7786659520370427e-07 4.3579956466630070e-08 0.093750000000000000 0.062500000000000000 0.093749013513454396 0.062496563047959093 
0.12500000000000000 0.062500000000000000 0.0000000000000000 -1.4645803968622543e-06 -4.4758594188969280e-06 1.2372811949311222 5.8783745932722677e-07 -1.4854935479798501e-08 0.12500000000000000 0.062500000000000000 0.12499853541960314 0.062495524140581106 
0.15625000000000000 0.062500000000000000 0.0000000000000000 -1.9107028714525470e-06 -5.4469226472665901e-06 1.0744694072096397 4.3977023227633970e-07 -9.2908101501171374e-10 0.15625000000000000 0.062500000000000000 0.15624808929712855 0.062494553077352737 
0.18750000000000000 0.062500000000000000 0.0000000000000000 -2.3217551601706309e-06 -6.3785657776608857e-06 0.95227271109820544 3.4071492194037703e-07 9.2323886599270477e-09 0.18750000000000000 0.062500000000000000 0.18749767824483984 0.062493621434222331 
0.21875000000000000 0.062500000000000000 0.0000000000000000 -2.6988006353739750e-06 -7.2873045105047911e-06 0.85472856247670725 2.8211735451882835e-07 1.7040042716219646e-08 0.21875000000000000 0.062500000000000000 0.21874730119936461 0.062492712695489498 
0.25000000000000000 0.062500000000000000 0.0000000000000000 -3.0438556972277476e-06 -8.1826658952111866e-06 0.77254331025511602 2.4413065303365393e-07 2.0101454857761194e-08 0.25000000000000000 0.062500000000000000 0.24999695614430276 0.062491817334104797 
0.28125000000000000 0.062500000000000000 0.0000000000000000 -3.3589830665973722e-06 -9.0700759989636272e-06 0.70043890661602681 2.1818935136328340e-07 1.9792860669511057e-08 0.28125000000000000 0.062500000000000000 0.28124664101693342 0.062490929924001036 
0.31250000000000000 0.062500000000000000 0.0000000000000000 -3.6460534986146492e-06 -9.9524708739025125e-06 0.63538268388477359 1.9927439078300213e-07 1.7023611463533046e-08 0.31250000000000000 0.062500000000000000 0.31249635394650138 0.062490047529126104 
0.34375000000000000 0.062500000000000000 0.0000000000000000 -3.9067206673217056e-06 -1.0831222754247980e-05 0.57559034682619725 1.8456757225140321e-07 1.2530753872546493e-08 0.34375000000000000 0.062500000000000000 0.34374609327933264 0.062489168777245752 
0.37500000000000000 0.062500000000000000 0.0000000000000000 -4.1424581613789828e-06 -1.1706696847956482e-05 0.51998946367559407 1.7242732278441081e-07 6.8585697929068334e-09 0.37500000000000000 0.062500000000000000 0.37499585754183862 0.062488293303152039 
0.40625000000000000 0.062500000000000000 0.0000000000000000 -4.3546076289440698e-06 -1.2578600822864058e-05 0.46792763631037376 1.6185710540918071e-07 4.1879527756108397e-10 0.40625000000000000 0.062500000000000000 0.40624564539237101 0.062487421399177130 
0.43750000000000000 0.062500000000000000 0.0000000000000000 -4.5444218579048642e-06 -1.3446212935357231e-05 0.41900912278061830 1.5223291111199330e-07 -6.4673010521699174e-09 0.43750000000000000 0.062500000000000000 0.43749545557814212 0.062486553787064643 
0.46875000000000000 0.062500000000000000 0.0000000000000000 -4.7130989750018974e-06 -1.4308536167375673e-05 0.37299988924696464 1.4315333809800636e-07 -1.3540965273482837e-08 0.46875000000000000 0.062500000000000000 0.46874528690102496 0.062485691463832628 
0.50000000000000000 0.062500000000000000 0.0000000000000000 -4.8618081579435477e-06 -1.5164405702092497e-05 0.32977019566459825 1.3435552256959369e-07 -2.0586602794752985e-08 0.50000000000000000 0.062500000000000000 0.49999513819184210 0.062484835594297905 
0.53125000000000000 0.062500000000000000 0.0000000000000000 -4.9917084271690095e-06 -1.6012566276645345e-05 0.28925846654242243 1.2566629492784764e-07 -2.7417735948958926e-08 0.53125000000000000 0.062500000000000000 0.53124500829157284 0.062483987433723354 
0.56250000000000000 0.062500000000000000 0.0000000000000000 -5.1039621706098040e-06 -1.6851729952738992e-05 0.25144757143514707 1.1697322908154063e-07 -3.3866085505809183e-08 0.56250000000000000 0.062500000000000000 0.56249489603782943 0.062483148270047258 
0.59375000000000000 0.062500000000000000 0.0000000000000000 -5.1997447968883781e-06 -1.7680621432830660e-05 0.21634841230064106 1.0820765666503375e-07 -3.9772584767298693e-08 0.59375000000000000 0.062500000000000000 0.59374480025520315 0.062482319378567179 
0.62500000000000000 0.062500000000000000 0.0000000000000000 -5.2802515881296081e-06 -1.8498016094061344e-05 0.18398768172669730 9.9335430155107344e-08 -4.4979717993546806e-08 0.62500000000000000 0.062500000000000000 0.62499471974841192 0.062481501983905945 
0.65625000000000000 0.062500000000000000 0.0000000000000000 -5.3467025331638337e-06 -1.9302774822816909e-05 0.15439769807940537 9.0353273729998378e-08 -4.9324968974790036e-08 0.65625000000000000 0.062500000000000000 0.65624465329746684 0.062480697225177184 
0.68750000000000000 0.062500000000000000 0.0000000000000000 -5.4003457016115089e-06 -2.0093879192006492e-05 0.12760678636648518 8.1289233775748447e-08 -5.2635530317180730e-08 0.68750000000000000 0.062500000000000000 0.68749459965429838 0.062479906120807997 
0.71875000000000000 0.062500000000000000 0.0000000000000000 -5.4424595884107707e-06 -2.0870470354382740e-05 0.10362901671536802 7.2207382686971992e-08 -5.4724761027993706e-08 0.71875000000000000 0.062500000000000000 0.71874455754041155 0.062479129529645620 
0.75000000000000000 0.062500000000000000 0.0000000000000000 -5.4743548358802301e-06 -2.1631895119103730e-05 0.082452426425505182 6.3212087055404486e-08 -5.5391615853631238e-08 0.75000000000000000 0.062500000000000000 0.74999452564516400 0.062478368104880895 
0.78125000000000000 0.062500000000000000 0.0000000000000000 -5.4973758515353712e-06 -2.2377762943111441e-05 0.064025449538208851 5.4462726277996102e-08 -5.4424445798022487e-08 0.78125000000000000 0.062500000000000000 0.78124450262414846 0.062477622237056891 
0.81250000000000000 0.062500000000000000 0.0000000000000000 -5.5129030765079749e-06 -2.3108017867575867e-05 0.048242437444694940 4.6146255961361266e-08 -5.1613933694984938e-08 0.81250000000000000 0.062500000000000000 0.81249448709692362 0.062476891982132417 
0.84375000000000000 0.062500000000000000 0.0000000000000000 -5.5223569731053213e-06 -2.3823029538311469e-05 0.034932316960336711 3.8564351864597892e-08 -4.6776268904798312e-08 0.84375000000000000 0.062500000000000000 0.84374447764302685 0.062476176970461698 
0.87500000000000000 0.062500000000000000 0.0000000000000000 -5.5272046983996311e-06 -2.4523706831573366e-05 0.023858723478938911 3.1725631855517339e-08 -3.9809559666868065e-08 0.87500000000000000 0.062500000000000000 0.87499447279530163 0.062475476293168429 
0.90625000000000000 0.062500000000000000 0.0000000000000000 -5.5289693123370424e-06 -2.5211635743033077e-05 0.014754137150136392 2.6419217248250338e-08 -3.0779086914476233e-08 0.90625000000000000 0.062500000000000000 0.90624447103068750 0.062474788364256968 
0.93750000000000000 0.062500000000000000 0.0000000000000000 -5.5292350033758916e-06 -2.5889238184429044e-05 0.0074072705664063364 2.0002679260226770e-08 -2.0097092289220251e-08 0.93750000000000000 0.062500000000000000 0.93749447076499670 0.062474110761815575 
0.96875000000000000 0.062500000000000000 0.0000000000000000 -5.5296289255909937e-06 -2.6559945755322192e-05 0.0018598829620836150 1.8820002879542217e-08 -9.2273400801944305e-09 0.96875000000000000 0.062500000000000000 0.96874447037107447 0.062473440054244676 
1.0000000000000000 0.062500000000000000 0.0000000000000000 -5.5317126078057033e-06 -2.7228393718157097e-05 -0.00086449335242870116 0.0000000000000000 7.1404379240128130e-10 1.0000000000000000 0.062500000000000000 0.99999446828739236 0.062472771606281841 
0.031250000000000000 0.093750000000000000 0.0000000000000000 -8.7367443973873533e-08 -9.1593999279014760e-07 1.7236440587071797 2.1232539915386301e-07 7.8535176524074992e-07 0.031250000000000000 0.093750000000000000 0.031249912632556026 0.093749084060007204 
0.0000000000000000 0.093750000000000000 0.0000000000000000 0.0000000000000000 0.0000000000000000 1.6976415242794420 0.0000000000000000 9.1785697862372799e-07 0.0000000000000000 0.093750000000000000 0.0000000000000000 0.093750000000000000 
0.062500000000000000 0.093750000000000000 0.0000000000000000 -3.0690448737950189e-07 -1.9377311666548482e-06 1.6068415376936276 5.5012196688545975e-07 5.7591136777494791e-07 0.062500000000000000 0.093750000000000000 0.062499693095512621 0.093748062268833351 
0.093750000000000000 0.093750000000000000 0.0000000000000000 -6.3550318093288798e-07 -2.9986887750920935e-06 1.4194850624449871 6.4898535448405071e-07 2.5277812511338610e-07 0.093750000000000000 0.093750000000000000 0.093749364496819074 0.093747001311224917 
0.12500000000000000 0.093750000000000000 0.0000000000000000 -1.0230847318017779e-06 -4.0407467516658018e-06 1.2267689257958707 5.6104726421607560e-07 9.4548525850348783e-08 0.12500000000000000 0.093750000000000000 0.12499897691526819 0.093745959253248343 
0.15625000000000000 0.093750000000000000 0.0000000000000000 -1.4126383052053068e-06 -5.0367966400344034e-06 1.0691583079615159 4.3986292304408620e-07 5.5758395526135692e-08 0.15625000000000000 0.093750000000000000 0.15624858736169481 0.093744963203359968 
0.18750000000000000 0.093750000000000000 0.0000000000000000 -1.7853002378301429e-06 -5.9983256780046079e-06 0.94591771458796448 3.4557920298231927e-07 4.5330489256600972e-08 0.18750000000000000 0.093750000000000000 0.18749821469976216 0.093744001674321994 
0.21875000000000000 0.093750000000000000 0.0000000000000000 -2.1344429432343968e-06 -6.9371437501576901e-06 0.84701478118106577 2.8495173201872377e-07 4.3646355931380915e-08 0.21875000000000000 0.093750000000000000 0.21874786555705675 0.093743062856249837 
0.25000000000000000 0.093750000000000000 0.0000000000000000 -2.4580638495134441e-06 -7.8614420799827248e-06 0.76434172999072814 2.4372986845428047e-07 4.1286230115431033e-08 0.25000000000000000 0.093750000000000000 0.24999754193615045 0.093742138557920018 
0.28125000000000000 0.093750000000000000 0.0000000000000000 -2.7560296983274984e-06 -8.7763349849585957e-06 0.69264382410918357 2.1526490996743056e-07 3.7491064880876541e-08 0.28125000000000000 0.093750000000000000 0.28124724397030171 0.093741223665015042 
0.31250000000000000 0.093750000000000000 0.0000000000000000 -3.0289710713047027e-06 -9.6847599382479453e-06 0.62869215448565818 1.9446195899635918e-07 3.2125161647216452e-08 0.31250000000000000 0.093750000000000000 0.31249697102892871 0.093740315240061753 
0.34375000000000000 0.093750000000000000 0.0000000000000000 -3.2778210520614483e-06 -1.0588172422301867e-05 0.57050618875813786 1.7843215169500939e-07 2.5558394688510076e-08 0.34375000000000000 0.093750000000000000 0.34374672217894792 0.093739411827577709 
0.37500000000000000 0.093750000000000000 0.0000000000000000 -3.5036214630681673e-06 -1.1487026492896556e-05 0.51685527312252633 1.6540799723279749e-07 1.8143496190919448e-08 0.37500000000000000 0.093750000000000000 0.37499649637853688 0.093738512973507104 
0.40625000000000000 0.093750000000000000 0.0000000000000000 -3.7074442070923302e-06 -1.2381101544373605e-05 0.46696371813287074 1.5429917235768135e-07 1.0191549908802178e-08 0.40625000000000000 0.093750000000000000 0.40624629255579287 0.093737618898455624 
0.43750000000000000 0.093750000000000000 0.0000000000000000 -3.8903623862392239e-06 -1.3269726456249722e-05 0.42033855925904717 1.4441421611393530e-07 1.9635120056727349e-09 0.43750000000000000 0.093750000000000000 0.43749610963761382 0.093736730273543747 
0.46875000000000000 0.093750000000000000 0.0000000000000000 -4.0534425306726381e-06 -1.4151935928737783e-05 0.37666703558576314 1.3530408003426863e-07 -6.3198985445846012e-09 0.46875000000000000 0.093750000000000000 0.46874594655746932 0.093735848064071259 
0.50000000000000000 0.093750000000000000 0.0000000000000000 -4.1977452335543743e-06 -1.5026581708434026e-05 0.33575357255555832 1.2667297650117561e-07 -1.4467906327322643e-08 0.50000000000000000 0.093750000000000000 0.49999580225476642 0.093734973418291567 