# For a description of the Tecplot format see the Tecplot User's guide.
#
Variables=x,y,z,s_u,s_v,s_p,x,y,ref_u,ref_v,u,v
Zone f=fepoint, n=289, e=512, et=quadrilateral, c=black
0.00000 0.00000 0.00000 0.0000000000000000 0.0000000000000000 5.3501393506940840 0.0000000000000000 0.0000000000000000 0.0000000000000000 0.0000000000000000 0.0000000000000000 0.0000000000000000 
0.062500000000000000 0.0000000000000000 0.0000000000000000 -6.8418248972878371e-07 -2.0573063630484550e-06 2.8091145921485090 3.6444366572705754e-06 0.0000000000000000 0.062500000000000000 0.0000000000000000 0.062499315817510274 -2.0573063630484550e-06 
0.062500000000000000 0.062500000000000000 0.0000000000000000 -1.6280499664092993e-08 -1.4344064389848128e-06 1.9351170832485109 1.4480500525034442e-06 1.4456850620275404e-06 0.062500000000000000 0.062500000000000000 0.062499983719500336 0.062498565593561019 
0.0000000000000000 0.062500000000000000 0.0000000000000000 -1.3041327611462137e-25 0.0000000000000000 1.0949288153221908 1.3041327610277504e-22 2.6081744921098713e-06 0.0000000000000000 0.062500000000000000 -1.3041327611462137e-25 0.062500000000000000 
0.12500000000000000 0.0000000000000000 0.0000000000000000 -1.2692727785986033e-06 -3.8444999173234605e-06 2.3677655131914022 2.9700462412336937e-06 0.0000000000000000 0.12500000000000000 0.0000000000000000 0.12499873072722140 -3.8444999173234605e-06 
0.12500000000000000 0.062500000000000000 0.0000000000000000 -5.5505184941763194e-07 -3.3019292168160724e-06 0.33096160959715082 -1.1628475688214245e-06 -5.2539089875248363e-07 0.12500000000000000 0.062500000000000000 0.12499944494815059 0.062496698070783181 
0.18750000000000000 0.0000000000000000 0.0000000000000000 -1.7567997095521797e-06 -5.4611082190227983e-06 1.9870455570089247 2.3643265577073924e-06 0.0000000000000000 0.18750000000000000 0.0000000000000000 0.18749824320029043 -5.4611082190227983e-06 
0.18750000000000000 0.062500000000000000 0.0000000000000000 -1.0324704863407037e-06 -5.0123833241448008e-06 0.27485534827402552 -5.5281845316176068e-07 8.2606876762904927e-08 0.18750000000000000 0.062500000000000000 0.18749896752951367 0.062494987616675858 
0.25000000000000000 0.0000000000000000 0.0000000000000000 -2.1593992728063825e-06 -6.9549782317397713e-06 1.6639554855312095 2.0814498514953061e-06 0.0000000000000000 0.25000000000000000 0.0000000000000000 0.24999784060072719 -6.9549782317397713e-06 
0.25000000000000000 0.062500000000000000 0.0000000000000000 -1.4258506922162952e-06 -6.5858697451698968e-06 0.21328002711900629 -5.6143513822473237e-07 -4.4674784563531416e-08 0.25000000000000000 0.062500000000000000 0.24999857414930779 0.062493414130254832 
0.31250000000000000 0.0000000000000000 0.0000000000000000 -2.4866030403709620e-06 -8.3585224392654045e-06 1.3825487547385549 1.8255174380771557e-06 0.0000000000000000 0.31250000000000000 0.0000000000000000 0.31249751339695964 -8.3585224392654045e-06 
0.31250000000000000 0.062500000000000000 0.0000000000000000 -1.7478483907430823e-06 -8.0597610011817485e-06 0.16281328440500289 -4.8384233386277544e-07 -9.3363096855576229e-09 0.31250000000000000 0.062500000000000000 0.31249825215160926 0.062491940238998823 
0.37500000000000000 0.0000000000000000 0.0000000000000000 -2.7476650422551691e-06 -9.6882869788066609e-06 1.1346921346132599 1.6286843187102713e-06 0.0000000000000000 0.37500000000000000 0.0000000000000000 0.37499725233495768 -9.6882869788066609e-06 
0.37500000000000000 0.062500000000000000 0.0000000000000000 -2.0067992327025683e-06 -9.4512135973847744e-06 0.11908137844104916 -4.4405090423953791e-07 -2.0912507219670684e-08 0.37500000000000000 0.062500000000000000 0.37499799320076738 0.062490548786402610 
0.43750000000000000 0.0000000000000000 0.0000000000000000 -2.9508319709608402e-06 -1.0953548874519147e-05 0.91562101257681883 1.4558520664463166e-06 0.0000000000000000 0.43750000000000000 0.0000000000000000 0.43749704916802906 -1.0953548874519147e-05 
0.43750000000000000 0.062500000000000000 0.0000000000000000 -2.2104288828624667e-06 -1.0770296796754073e-05 0.082473868046273546 -4.0503952197339003e-07 -2.5713240099200297e-08 0.43750000000000000 0.062500000000000000 0.43749778957111712 0.062489229703203246 
0.50000000000000000 0.0000000000000000 0.0000000000000000 -3.1040039656427275e-06 -1.2159181800547996e-05 0.72252255642053775 1.2991652238016268e-06 0.0000000000000000 0.50000000000000000 0.0000000000000000 0.49999689599603436 -1.2159181800547996e-05 
0.50000000000000000 0.062500000000000000 0.0000000000000000 -2.3659273234962217e-06 -1.2022240952694694e-05 0.052319521607756027 -3.7062981783036567e-07 -3.3280095435587512e-08 0.50000000000000000 0.062500000000000000 0.49999763407267656 0.062487977759047304 
0.56250000000000000 0.0000000000000000 0.0000000000000000 -3.2148261620095439e-06 -1.3307825253395458e-05 0.55379300233143613 1.1505539972080467e-06 0.0000000000000000 0.56250000000000000 0.0000000000000000 0.56249678517383794 -1.3307825253395458e-05 
0.56250000000000000 0.062500000000000000 0.0000000000000000 -2.4802079774165437e-06 -1.3209909816898727e-05 0.028314491934226676 -3.3667180166550715e-07 -3.9685857167610634e-08 0.56250000000000000 0.062500000000000000 0.56249751979202245 0.062486790090183104 
0.62500000000000000 0.0000000000000000 0.0000000000000000 -3.2907826109256843e-06 -1.4401026945533605e-05 0.40853973742282762 1.0058744638933330e-06 0.0000000000000000 0.62500000000000000 0.0000000000000000 0.62499670921738903 -1.4401026945533605e-05 
0.62500000000000000 0.062500000000000000 0.0000000000000000 -2.5600259270979341e-06 -1.4335001523482057e-05 0.010140533143213578 -3.0231369938496910e-07 -4.5097590957714729e-08 0.62500000000000000 0.062500000000000000 0.62499743997407287 0.062485664998476520 
0.68750000000000000 0.0000000000000000 0.0000000000000000 -3.3391720977089984e-06 -1.5439902581564781e-05 0.28629559666477838 8.6198982905422569e-07 0.0000000000000000 0.68750000000000000 0.0000000000000000 0.68749666082790239 -1.5439902581564781e-05 
0.68750000000000000 0.062500000000000000 0.0000000000000000 -2.6120193340909550e-06 -1.5398813198191071e-05 -0.0024782703788280478 -2.6667498038329300e-07 -4.8386284597303559e-08 0.68750000000000000 0.062500000000000000 0.68749738798066595 0.062484601186801818 
0.75000000000000000 0.0000000000000000 0.0000000000000000 -3.3669966599985307e-06 -1.6425436088541312e-05 0.18683501308033537 7.1740103738238250e-07 0.0000000000000000 0.75000000000000000 0.0000000000000000 0.74999663300333996 -1.6425436088541312e-05 
0.75000000000000000 0.062500000000000000 0.0000000000000000 -2.6426645382759511e-06 -1.6402613723060944e-05 -0.0098185282133282179 -2.2957484354964622e-07 -5.2159796640729860e-08 0.75000000000000000 0.062500000000000000 0.74999735733546169 0.062483597386276936 
0.81250000000000000 0.0000000000000000 0.0000000000000000 -3.3807132463847699e-06 -1.7358455126799579e-05 0.11004840487997475 5.6860893492596843e-07 0.0000000000000000 0.81250000000000000 0.0000000000000000 0.81249661928675365 -1.7358455126799579e-05 
0.81250000000000000 0.062500000000000000 0.0000000000000000 -2.6581450973746961e-06 -1.7347814881597155e-05 -0.012133709703007109 -1.9069515611930540e-07 -4.8255059456027782e-08 0.81250000000000000 0.062500000000000000 0.81249734185490252 0.062482652185118399 
0.87500000000000000 0.0000000000000000 0.0000000000000000 -3.3859459590367765e-06 -1.8239516886638023e-05 0.056096464880722452 4.1851219171729578e-07 0.0000000000000000 0.87500000000000000 0.0000000000000000 0.87499661405404094 -1.8239516886638023e-05 
0.87500000000000000 0.062500000000000000 0.0000000000000000 -2.6640745511004396e-06 -1.8235694513846723e-05 -0.0097322688342241000 -1.5162356819427683e-07 -6.5355677764687633e-08 0.87500000000000000 0.062500000000000000 0.87499733592544893 0.062481764305486152 
0.93750000000000000 0.0000000000000000 0.0000000000000000 -3.3868213159858780e-06 -1.9067624616481796e-05 0.022171414380622544 2.5172608161813756e-07 0.0000000000000000 0.93750000000000000 0.0000000000000000 0.93749661317868405 -1.9067624616481796e-05 
0.93750000000000000 0.062500000000000000 0.0000000000000000 -2.6652238289959061e-06 -1.9067135571559250e-05 -0.0046878561855073194 -1.1023887611077359e-07 -1.9947296486406739e-08 0.93750000000000000 0.062500000000000000 0.93749733477617092 0.062480932864428441 
1.0000000000000000 0.0000000000000000 0.0000000000000000 -3.3861748933618941e-06 -1.9848277462410083e-05 0.037583662058624061 0.0000000000000000 0.0000000000000000 1.0000000000000000 0.0000000000000000 0.99999661382510663 -1.9848277462410083e-05 
1.0000000000000000 0.062500000000000000 0.0000000000000000 -2.6649335113545674e-06 -1.9847652066010929e-05 0.011025052758351169 0.0000000000000000 -1.4164395575002961e-07 1.0000000000000000 0.062500000000000000 0.99999733506648869 0.062480152347933991 
0.062500000000000000 0.12500000000000000 0.0000000000000000 -3.6459509641621515e-09 -1.3983893482748924e-06 0.46774986560431886 -4.3594553908374620e-07 -1.1007289559451683e-06 0.062500000000000000 0.12500000000000000 0.062499996354049035 0.12499860161065172 
0.0000000000000000 0.12500000000000000 0.0000000000000000 1.1714830367345900e-25 0.0000000000000000 0.78993231034165701 2.9228502489436385e-22 2.9373580316974744e-06 0.0000000000000000 0.12500000000000000 1.1714830367345900e-25 0.12500000000000000 
0.12500000000000000 0.12500000000000000 0.0000000000000000 -3.2050133038498414e-08 -2.8192468771449944e-06 1.5955360013846300 1.5138193711422813e-06 1.4114720693074263e-06 0.12500000000000000 0.12500000000000000 0.12499996794986697 0.12499718075312284 
0.18750000000000000 0.12500000000000000 0.0000000000000000 -4.5067604516098958e-07 -4.5966323850598160e-06 0.35478349669782866 5.1926482676557249e-08 -4.5141371126847329e-07 0.18750000000000000 0.12500000000000000 0.18749954932395485 0.12499540336761494 
0.25000000000000000 0.12500000000000000 0.0000000000000000 -8.1036924465818296e-07 -6.2440479072390353e-06 0.32065442823137719 2.8841844816310029e-07 -7.5391210397061412e-09 0.25000000000000000 0.12500000000000000 0.24999918963075538 0.12499375595209276 
0.31250000000000000 0.12500000000000000 0.0000000000000000 -1.1055294781118817e-06 -7.7814428352372440e-06 0.26098291750042213 1.9302707867642706e-07 -8.3152221959420730e-08 0.31250000000000000 0.12500000000000000 0.31249889447052187 0.12499221855716476 
0.37500000000000000 0.12500000000000000 0.0000000000000000 -1.3439947737993034e-06 -9.2292690016945573e-06 0.21313757863890959 1.9207477635751698e-07 -5.8664446140420803e-08 0.37500000000000000 0.12500000000000000 0.37499865600522625 0.12499077073099830 
0.43750000000000000 0.12500000000000000 0.0000000000000000 -1.5321719859042018e-06 -1.0597844110109710e-05 0.17104147429583669 1.7115487168833403e-07 -6.0662262755959040e-08 0.43750000000000000 0.12500000000000000 0.43749846782801410 0.12498940215588990 
0.50000000000000000 0.12500000000000000 0.0000000000000000 -1.6761920140674217e-06 -1.1892771011709278e-05 0.13483448033685033 1.5785141654447514e-07 -5.8730398967728172e-08 0.50000000000000000 0.12500000000000000 0.49999832380798592 0.12498810722898827 
0.56250000000000000 0.12500000000000000 0.0000000000000000 -1.7819918875658940e-06 -1.3117061627690820e-05 0.10384901895933003 1.4442238639799422e-07 -5.8404629871381131e-08 0.56250000000000000 0.12500000000000000 0.56249821800811250 0.12498688293837230 
0.62500000000000000 0.12500000000000000 0.0000000000000000 -1.8554506205694802e-06 -1.4272495582327630e-05 0.077789906989835414 1.3224151124428248e-07 -5.7675051552107866e-08 0.62500000000000000 0.12500000000000000 0.62499814454937941 0.12498572750441768 
0.68750000000000000 0.12500000000000000 0.0000000000000000 -1.9024301407255897e-06 -1.5360436290886138e-05 0.056422847588851043 1.2067818385587168e-07 -5.5940401594612843e-08 0.68750000000000000 0.12500000000000000 0.68749809756985936 0.12498463956370910 
0.75000000000000000 0.12500000000000000 0.0000000000000000 -1.9287682391329284e-06 -1.6382284364720783e-05 0.039586044111447859 1.0974895276993102e-07 -5.5639100261406198e-08 0.75000000000000000 0.12500000000000000 0.74999807123176077 0.12498361771563528 
0.81250000000000000 0.12500000000000000 0.0000000000000000 -1.9401939672026445e-06 -1.7339739116031401e-05 0.027233491057533754 9.9043635409634778e-08 -4.7437719980169689e-08 0.81250000000000000 0.12500000000000000 0.81249805980603285 0.12498266026088396 
0.87500000000000000 0.12500000000000000 0.0000000000000000 -1.9421561702192797e-06 -1.8234620818172483e-05 0.019353213708713467 8.8428825478628478e-08 -6.6049038469546974e-08 0.87500000000000000 0.12500000000000000 0.87499805784382978 0.12498176537918183 
0.93750000000000000 0.12500000000000000 0.0000000000000000 -1.9395606921546277e-06 -1.9068869982013148e-05 0.013796474713510481 8.3963339914285955e-08 4.4959721648334383e-09 0.93750000000000000 0.12500000000000000 0.93749806043930783 0.12498093113001797 
1.0000000000000000 0.12500000000000000 0.0000000000000000 -1.9358454934624045e-06 -1.9848988736560433e-05 0.041277656458090124 0.0000000000000000 -1.7660217228875170e-07 1.0000000000000000 0.12500000000000000 0.99999806415450665 0.12498015101126343 
0.062500000000000000 0.18750000000000000 0.0000000000000000 2.0091852509392176e-09 -1.3925983124997461e-06 0.40742912191177494 1.4659192675264120e-07 -6.1592763793715195e-07 0.062500000000000000 0.18750000000000000 0.062500002009185249 0.18749860740168753 
0.0000000000000000 0.18750000000000000 0.0000000000000000 -1.6174612088542353e-24 0.0000000000000000 0.35599284928040453 3.8971336655951998e-22 2.3786945694794866e-06 0.0000000000000000 0.18750000000000000 -1.6174612088542353e-24 0.18750000000000000 
0.12500000000000000 0.18750000000000000 0.0000000000000000 -2.0623705500139032e-09 -2.7923578993573734e-06 0.38718913579268888 -3.5298901013418637e-07 3.9917161674977475e-08 0.12500000000000000 0.18750000000000000 0.12499999793762946 0.18749720764210065 
0.18750000000000000 0.18750000000000000 0.0000000000000000 -1.5088504763348932e-08 -4.2320991323752978e-06 1.2580496967483956 9.5347729804276646e-07 9.1553081347293103e-07 0.18750000000000000 0.18750000000000000 0.18749998491149525 0.18749576790086764 
0.25000000000000000 0.18750000000000000 0.0000000000000000 -3.2115672777125313e-07 -5.9380905617899437e-06 0.30022217902838727 -1.8445273735690534e-07 -3.0604790182012755e-07 0.25000000000000000 0.18750000000000000 0.24999967884327221 0.18749406190943821 
0.31250000000000000 0.18750000000000000 0.0000000000000000 -5.7755384683179965e-07 -7.5325196578756406e-06 0.27788370979219534 5.2634017570596521e-08 1.4515590383892735e-08 0.31250000000000000 0.18750000000000000 0.31249942244615309 0.18749246748034212 
0.37500000000000000 0.18750000000000000 0.0000000000000000 -7.8404981888888697e-07 -9.0304798728049871e-06 0.22473068814646968 -6.7118163375310316e-09 -5.6059450923510993e-08 0.37500000000000000 0.18750000000000000 0.37499921595018110 0.18749096952012720 
0.43750000000000000 0.18750000000000000 0.0000000000000000 -9.4617843828336838e-07 -1.0443682969302145e-05 0.18384357593292955 6.4420519262845936e-09 -3.9478780398789962e-08 0.43750000000000000 0.18750000000000000 0.43749905382156173 0.18748955631703071 
0.50000000000000000 0.18750000000000000 0.0000000000000000 -1.0688610425153763e-06 -1.1777729127858006e-05 0.14831975016696722 1.7418353544709222e-09 -4.5557122375481766e-08 0.50000000000000000 0.18750000000000000 0.49999893113895749 0.18748822227087214 
0.56250000000000000 0.18750000000000000 0.0000000000000000 -1.1570646137317657e-06 -1.3035696534231454e-05 0.11819687444091202 2.0320063604209880e-09 -4.6697985760017270e-08 0.56250000000000000 0.18750000000000000 0.56249884293538621 0.18748696430346576 
0.62500000000000000 0.18750000000000000 0.0000000000000000 -1.2158252772275098e-06 -1.4219330806436340e-05 0.092642910751854310 1.7436381386146650e-09 -4.8823350884062877e-08 0.62500000000000000 0.18750000000000000 0.62499878417472277 0.18748578066919355 
0.68750000000000000 0.18750000000000000 0.0000000000000000 -1.2502869510470490e-06 -1.5329946139874646e-05 0.071322644046722949 2.3862570913003611e-09 -4.9368359433963150e-08 0.68750000000000000 0.18750000000000000 0.68749874971304881 0.18748467005386013 
0.75000000000000000 0.18750000000000000 0.0000000000000000 -1.2657025436443933e-06 -1.6368920054191555e-05 0.053983876764271667 3.5858494682629140e-09 -5.1278289473541922e-08 0.75000000000000000 0.18750000000000000 0.74999873429745634 0.18748363107994581 
0.81250000000000000 0.18750000000000000 0.0000000000000000 -1.2673879099938452e-06 -1.7338034404403973e-05 0.040657767543000045 5.3084011566081631e-09 -4.4270104992644236e-08 0.81250000000000000 0.18750000000000000 0.81249873261208994 0.18748266196559560 
0.87500000000000000 0.18750000000000000 0.0000000000000000 -1.2606073989672278e-06 -1.8239353234987822e-05 0.031366504418753181 7.5283595792578838e-09 -6.7154584882744301e-08 0.87500000000000000 0.18750000000000000 0.87499873939260109 0.18748176064676500 
0.93750000000000000 0.18750000000000000 0.0000000000000000 -1.2503676486996578e-06 -1.9075560190633382e-05 0.023449682573973240 9.8642983870196923e-09 1.8479500146483992e-08 0.93750000000000000 0.18750000000000000 0.93749874963235136 0.18748092443980938 
1.0000000000000000 0.18750000000000000 0.0000000000000000 -1.2407893415305846e-06 -1.9853373251078568e-05 0.068599478364576957 0.0000000000000000 -2.4870105607874825e-07 1.0000000000000000 0.18750000000000000 0.99999875921065851 0.18748014662674892 
0.062500000000000000 0.25000000000000000 0.0000000000000000 6.8078454520952626e-09 -1.4002453652997538e-06 0.30506860166073169 -4.6383087530011759e-08 -6.1879518930254336e-07 0.062500000000000000 0.25000000000000000 0.062500006807845454 0.24999859975463470 
0.0000000000000000 0.25000000000000000 0.0000000000000000 -5.0535847948784411e-25 0.0000000000000000 -0.0041271056936055634 2.5980891103084195e-22 2.0789589114612315e-06 0.0000000000000000 0.25000000000000000 -5.0535847948784411e-25 0.25000000000000000 
0.12500000000000000 0.25000000000000000 0.0000000000000000 2.2777074542814218e-08 -2.7953152078156169e-06 0.35362506516550313 7.7978643364640750e-08 3.1750371437376441e-07 0.12500000000000000 0.25000000000000000 0.12500002277707453 0.24999720468479222 
0.18750000000000000 0.25000000000000000 0.0000000000000000 3.7696694019716596e-08 -4.2285152948328689e-06 0.33680119108294759 -2.5013250559133452e-07 -1.9785864015368192e-07 0.18750000000000000 0.25000000000000000 0.18750003769669402 0.24999577148470517 
0.25000000000000000 0.25000000000000000 0.0000000000000000 5.2980577930019409e-08 -5.6813243414555854e-06 0.99489102361759540 7.8607166988477040e-07 7.5361648769865518e-07 0.25000000000000000 0.25000000000000000 0.25000005298057792 0.24999431867565855 
0.31250000000000000 0.25000000000000000 0.0000000000000000 -1.5187875046137429e-07 -7.3242198809286507e-06 0.26097743903312004 -9.7010994384227657e-08 -2.5872295750681211e-07 0.31250000000000000 0.25000000000000000 0.31249984812124953 0.24999267578011911 
0.37500000000000000 0.25000000000000000 0.0000000000000000 -3.1577541642129490e-07 -8.8657517891662957e-06 0.24851196565912673 8.7878860030064055e-08 8.5349700865202287e-09 0.37500000000000000 0.25000000000000000 0.37499968422458357 0.24999113424821084 
0.43750000000000000 0.25000000000000000 0.0000000000000000 -4.4202331582885011e-07 -1.0317823711553638e-05 0.20323079999101737 3.4567816182301008e-08 -5.4160468621766534e-08 0.43750000000000000 0.25000000000000000 0.43749955797668422 0.24998968217628845 
0.50000000000000000 0.25000000000000000 0.0000000000000000 -5.3429844410159661e-07 -1.1686453132646024e-05 0.16935136844138574 4.2394283097283087e-08 -4.1940661585411336e-08 0.50000000000000000 0.25000000000000000 0.49999946570155590 0.24998831354686732 
0.56250000000000000 0.25000000000000000 0.0000000000000000 -5.9650468178567914e-07 -1.2974479854149196e-05 0.13995802478685726 3.5823047018308969e-08 -4.7706120450817519e-08 0.56250000000000000 0.25000000000000000 0.56249940349531824 0.24998702552014587 
0.62500000000000000 0.25000000000000000 0.0000000000000000 -6.3278677544414024e-07 -1.4183484656145235e-05 0.11506934690055075 3.3837146380417751e-08 -4.9003003706940722e-08 0.62500000000000000 0.25000000000000000 0.62499936721322458 0.24998581651534388 
0.68750000000000000 0.25000000000000000 0.0000000000000000 -6.4756268105497508e-07 -1.5314594930867224e-05 0.093896002340460430 3.1540880870944012e-08 -5.0089212976874642e-08 0.68750000000000000 0.25000000000000000 0.68749935243731908 0.24998468540506913 
0.75000000000000000 0.25000000000000000 0.0000000000000000 -6.4550177034424368e-07 -1.6369018719884470e-05 0.076106510865705704 3.0022113569885827e-08 -5.2136843736421845e-08 0.75000000000000000 0.25000000000000000 0.74999935449822963 0.24998363098128015 
0.81250000000000000 0.25000000000000000 0.0000000000000000 -6.3149774166242939e-07 -1.7348427939543509e-05 0.061688555781189314 2.8909098551592401e-08 -4.5129926969458084e-08 0.81250000000000000 0.25000000000000000 0.81249936850225846 0.24998265157206045 
0.87500000000000000 0.25000000000000000 0.0000000000000000 -6.1060328873215314e-07 -1.8254897129565394e-05 0.050594481820838456 2.8139004573554910e-08 -6.9449729115805616e-08 0.87500000000000000 0.25000000000000000 0.87499938939671129 0.24998174510287044 
0.93750000000000000 0.25000000000000000 0.0000000000000000 -5.8788079164797153e-07 -1.9091455103731296e-05 0.039852789492240109 2.8616696901841938e-08 2.6787702408686822e-08 0.93750000000000000 0.25000000000000000 0.93749941211920851 0.24998090854489627 
1.0000000000000000 0.25000000000000000 0.0000000000000000 -5.6777657934598770e-07 -1.9864800862676094e-05 0.10911013668672838 0.0000000000000000 -2.9338501787657697e-07 1.0000000000000000 0.25000000000000000 0.99999943222342080 0.24998013519913734 
0.062500000000000000 0.31250000000000000 0.0000000000000000 1.0933358328917218e-08 -1.4194391281079247e-06 0.23572809553309607 -3.4414001603044144e-08 -5.4835761815234651e-07 0.062500000000000000 0.31250000000000000 0.062500010933358330 0.31249858056087193 
0.0000000000000000 0.31250000000000000 0.0000000000000000 6.2313941942447200e-26 0.0000000000000000 -0.32130139957624676 -3.8971336655087535e-22 1.9701276776567770e-06 0.0000000000000000 0.31250000000000000 6.2313941942447200e-26 0.31250000000000000 
0.12500000000000000 0.31250000000000000 0.0000000000000000 4.4166377702266385e-08 -2.8243535851651914e-06 0.26693518462486443 -2.7784613294357650e-08 2.0008020082925326e-07 0.12500000000000000 0.31250000000000000 0.12500004416637769 0.31249717564641483 
0.18750000000000000 0.31250000000000000 0.0000000000000000 8.9016663268556022e-08 -4.2584585739662024e-06 0.32357435885171193 6.5961274703491030e-08 5.2158792143226539e-08 0.18750000000000000 0.31250000000000000 0.18750008901666326 0.31249574154142601 
0.25000000000000000 0.31250000000000000 0.0000000000000000 1.3593011615635545e-07 -5.7114772285811741e-06 0.29638471726971943 -2.1127289271107838e-07 -1.0344430365516557e-07 0.25000000000000000 0.31250000000000000 0.25000013593011611 0.31249428852277145 
0.31250000000000000 0.31250000000000000 0.0000000000000000 1.8739400243427440e-07 -7.1637493285264055e-06 0.79754297853620448 5.8661816289800490e-07 5.5717711725501996e-07 0.31250000000000000 0.31250000000000000 0.31250018739400248 0.31249283625067154 
0.37500000000000000 0.31250000000000000 0.0000000000000000 7.2735056282441350e-08 -8.7445205941196297e-06 0.23570864672824735 -8.9581637210261048e-08 -2.0317756723185646e-07 0.37500000000000000 0.31250000000000000 0.37500007273505626 0.31249125547940587 
0.43750000000000000 0.31250000000000000 0.0000000000000000 -9.1188874898221093e-09 -1.0229038664501180e-05 0.23024048853884271 6.0662921578909204e-08 2.1142131275447604e-09 0.43750000000000000 0.31250000000000000 0.43749999088111252 0.31248977096133551 
0.50000000000000000 0.31250000000000000 0.0000000000000000 -6.3354950589399344e-08 -1.1627006219781772e-05 0.19234946173736067 1.8100640703485591e-08 -5.0676945979139478e-08 0.50000000000000000 0.31250000000000000 0.49999993664504944 0.31248837299378024 
0.56250000000000000 0.31250000000000000 0.0000000000000000 -9.2449011748409682e-08 -1.2940889052677252e-05 0.16458375233089387 2.5335255074448935e-08 -4.2108641575446383e-08 0.56250000000000000 0.31250000000000000 0.56249990755098811 0.31248705911094726 
0.62500000000000000 0.31250000000000000 0.0000000000000000 -9.9642600445147107e-08 -1.4171890724992228e-05 0.14032726764396966 2.0940493511474191e-08 -4.7808729065658743e-08 0.62500000000000000 0.31250000000000000 0.62499990035739961 0.31248582810927500 
0.68750000000000000 0.31250000000000000 0.0000000000000000 -8.8562374312506390e-08 -1.5320792168450447e-05 0.11965851680988142 2.0459914075501984e-08 -4.8750174583420914e-08 0.68750000000000000 0.31250000000000000 0.68749991143762568 0.31248467920783157 
0.75000000000000000 0.31250000000000000 0.0000000000000000 -6.3267197690033862e-08 -1.6388483626801024e-05 0.10182729327491376 1.9744855972477825e-08 -5.1491994525514560e-08 0.75000000000000000 0.31250000000000000 0.74999993673280230 0.31248361151637322 
0.81250000000000000 0.31250000000000000 0.0000000000000000 -2.8192221354281843e-08 -1.7376350816064798e-05 0.086786890735650560 1.9811450218053835e-08 -4.5304757306731653e-08 0.81250000000000000 0.31250000000000000 0.81249997180777866 0.31248262364918394 
0.87500000000000000 0.31250000000000000 0.0000000000000000 1.1875777697709261e-08 -1.8286263613520367e-05 0.074293534344888945 2.0426630899806123e-08 -6.9363231263225588e-08 0.87500000000000000 0.31250000000000000 0.87500001187577769 0.31248171373638650 
0.93750000000000000 0.31250000000000000 0.0000000000000000 5.1913227665221348e-08 -1.9121261253089853e-05 0.061076386732700605 2.0505449260933170e-08 2.8314762691421553e-08 0.93750000000000000 0.31250000000000000 0.93750005191322761 0.31248087873874691 
1.0000000000000000 0.31250000000000000 0.0000000000000000 8.7165387750125510e-08 -1.9887562196938750e-05 0.15850043809575146 0.0000000000000000 -3.1318826541689195e-07 1.0000000000000000 0.31250000000000000 1.0000000871653878 0.31248011243780305 
0.062500000000000000 0.37500000000000000 0.0000000000000000 1.5185211396371597e-08 -1.4492639242722100e-06 0.17659260650279576 -6.7669919265477590e-08 -5.5635956206481966e-07 0.062500000000000000 0.37500000000000000 0.062500015185211408 0.37499855073607574 
0.0000000000000000 0.37500000000000000 0.0000000000000000 -1.4786999734725499e-25 0.0000000000000000 -0.62531047544475260 1.9485668327431770e-21 2.0032361619390291e-06 0.0000000000000000 0.37500000000000000 -1.4786999734725499e-25 0.37500000000000000 
0.12500000000000000 0.37500000000000000 0.0000000000000000 6.4436271868790364e-08 -2.8754418319082377e-06 0.20470487307538854 -1.1342654648603715e-08 2.0409291284236450e-07 0.12500000000000000 0.37500000000000000 0.12500006443627187 0.37499712455816808 
0.18750000000000000 0.37500000000000000 0.0000000000000000 1.3523634738329416e-07 -4.3218710288375017e-06 0.25465364808568464 -2.9503104958638524e-08 -2.0581611527492792e-08 0.18750000000000000 0.37500000000000000 0.18750013523634737 0.37499567812897117 
0.25000000000000000 0.37500000000000000 0.0000000000000000 2.1824842342275614e-07 -5.7772405763812200e-06 0.29519686026115949 5.4391612450692153e-08 9.1012862180730796e-08 0.25000000000000000 0.37500000000000000 0.25000021824842339 0.37499422275942362 
0.31250000000000000 0.37500000000000000 0.0000000000000000 3.0386751435904648e-07 -7.2331112578432559e-06 0.26830064996432362 -1.6344388815886472e-07 -1.0381746670571777e-07 0.31250000000000000 0.37500000000000000 0.31250030386751432 0.37499276688874211 
0.37500000000000000 0.37500000000000000 0.0000000000000000 3.9552511782788065e-07 -8.6696537149621869e-06 0.65006137064723923 4.5118413830742608e-07 4.2240871967398718e-07 0.37500000000000000 0.37500000000000000 0.37500039552511782 0.37499133034628501 
0.43750000000000000 0.37500000000000000 0.0000000000000000 3.6109712362828586e-07 -1.0184994090028469e-05 0.22146084911814765 -6.8601497527731394e-08 -1.6774672105315213e-07 0.43750000000000000 0.37500000000000000 0.43750036109712370 0.37498981500591005 
0.50000000000000000 0.37500000000000000 0.0000000000000000 3.5198467220647642e-07 -1.1606242585818236e-05 0.22084774714535457 5.1919350766355675e-08 -5.1917784558425851e-09 0.50000000000000000 0.37500000000000000 0.50000035198467219 0.37498839375741416 
0.56250000000000000 0.37500000000000000 0.0000000000000000 3.6212406310821797e-07 -1.2941299952154903e-05 0.18986217388316215 1.7008024343472092e-08 -5.0204230143598241e-08 0.56250000000000000 0.37500000000000000 0.56250036212406307 0.37498705870004784 
0.62500000000000000 0.37500000000000000 0.0000000000000000 3.8977552799646678e-07 -1.4190490425165637e-05 0.16743785662560939 2.3037414130960802e-08 -4.4037552827194612e-08 0.62500000000000000 0.37500000000000000 0.62500038977552796 0.37498580950957483 
0.68750000000000000 0.37500000000000000 0.0000000000000000 4.3207468821080373e-07 -1.5354109549206680e-05 0.14754893917214959 1.9697834801031884e-08 -4.8858157786798853e-08 0.68750000000000000 0.37500000000000000 0.68750043207468814 0.37498464589045083 
0.75000000000000000 0.37500000000000000 0.0000000000000000 4.8566299446361076e-07 -1.6432557686351612e-05 0.13025558493247422 1.9663107536070847e-08 -5.1210623110661582e-08 0.75000000000000000 0.37500000000000000 0.75000048566299438 0.37498356744231365 
0.81250000000000000 0.37500000000000000 0.0000000000000000 5.4661842525091690e-07 -1.7426772939431368e-05 0.11517729845759794 1.9678550250510827e-08 -4.6520903482069395e-08 0.81250000000000000 0.37500000000000000 0.81250054661842530 0.37498257322706058 
0.87500000000000000 0.37500000000000000 0.0000000000000000 6.1049951357628803e-07 -1.8338229375156275e-05 0.10188763311076458 2.0633004154106708e-08 -6.8828368376600454e-08 0.87500000000000000 0.37500000000000000 0.87500061049951372 0.37498166177062492 