# For a description of the Tecplot format see the Tecplot User's guide.
#
Variables=x,y,z,s_u,s_v,s_p,x,y,ref_u,ref_v,u,v
Zone f=fepoint, n=9409, e=18432, et=quadrilateral, c=black
0.00000 0.00000 0.00000 0.0000000000000000 0.0000000000000000 3.7337512446822423 0.0000000000000000 0.0000000000000000 0.0000000000000000 0.0000000000000000 0.0000000000000000 0.0000000000000000 
0.010416666666666666 0.0000000000000000 0.0000000000000000 -5.5771115111352124e-07 -1.1955028681035013e-06 3.2279143055225763 9.4232816519602106e-06 0.0000000000000000 0.010416666666666666 0.0000000000000000 0.010416108955515552 -1.1955028681035013e-06 
0.010416666666666666 0.010416666666666666 0.0000000000000000 -1.4978540748578542e-07 -7.7622771509023615e-07 3.3185604544916614 6.4761432771930404e-06 2.2409268994328197e-06 0.010416666666666666 0.010416666666666666 0.010416516881259179 0.010415890438951575 
0.0000000000000000 0.010416666666666666 0.0000000000000000 0.0000000000000000 0.0000000000000000 3.5025467822199707 0.0000000000000000 5.1939860746833767e-06 0.0000000000000000 0.010416666666666666 0.0000000000000000 0.010416666666666666 
0.020833333333333332 0.0000000000000000 0.0000000000000000 -9.1281391665973612e-07 -1.8568100006752468e-06 2.6294961929281144 5.9866508026233187e-06 0.0000000000000000 0.020833333333333332 0.0000000000000000 0.020832420519416674 -1.8568100006752468e-06 
0.020833333333333332 0.010416666666666666 0.0000000000000000 -4.9488885715068064e-07 -1.5150917105441686e-06 2.7715437899580073 4.3377821104310541e-06 -1.1104168320696554e-06 0.020833333333333332 0.010416666666666666 0.020832838444476181 0.010415151574956122 
0.031250000000000000 0.0000000000000000 0.0000000000000000 -1.1956568490079019e-06 -2.3704613109639854e-06 2.1915743085037835 3.5369235695460650e-06 0.0000000000000000 0.031250000000000000 0.0000000000000000 0.031248804343150988 -2.3704613109639854e-06 
0.031250000000000000 0.010416666666666666 0.0000000000000000 -7.9618781283787275e-07 -2.0803531599864173e-06 2.3217779483704479 3.5258082762761918e-06 -9.7405321098318610e-07 0.031250000000000000 0.010416666666666666 0.031249203812187158 0.010414586313506681 
0.041666666666666664 0.0000000000000000 0.0000000000000000 -1.4418706804814762e-06 -2.8132780032970597e-06 1.8989342150528721 2.3430279400038519e-06 0.0000000000000000 0.041666666666666664 0.0000000000000000 0.041665224795986180 -2.8132780032970597e-06 
0.041666666666666664 0.010416666666666666 0.0000000000000000 -1.0642760677471979e-06 -2.5567229603582698e-06 2.0012822837779130 2.5328247331481494e-06 -1.0016650712671704e-06 0.041666666666666664 0.010416666666666666 0.041665602390598917 0.010414109943706307 
0.052083333333333336 0.0000000000000000 0.0000000000000000 -1.6659593825461548e-06 -3.2131013206128426e-06 1.6965223551351574 1.6233938843871201e-06 0.0000000000000000 0.052083333333333336 0.0000000000000000 0.052081667373950792 -3.2131013206128426e-06 
0.052083333333333336 0.010416666666666666 0.0000000000000000 -1.3082210452198599e-06 -2.9797479381110101e-06 1.7747715053664797 1.8175155712666110e-06 -8.0377425026988472e-07 0.052083333333333336 0.010416666666666666 0.052082025112288106 0.010413686918728555 
0.062500000000000000 0.0000000000000000 0.0000000000000000 -1.8749384227549692e-06 -3.5839462850637267e-06 1.5507431650013250 1.1813651889128368e-06 0.0000000000000000 0.062500000000000000 0.0000000000000000 0.062498125061577238 -3.5839462850637267e-06 
0.062500000000000000 0.010416666666666666 0.0000000000000000 -1.5338612123766835e-06 -3.3676079957850848e-06 1.6109508294179491 1.3431553231818734e-06 -6.4772535618513041e-07 0.062500000000000000 0.010416666666666666 0.062498466138787623 0.010413299058670882 
0.072916666666666671 0.0000000000000000 0.0000000000000000 -2.0725762605652439e-06 -3.9340037420350894e-06 1.4410871011663033 9.0326292359375979e-07 0.0000000000000000 0.072916666666666671 0.0000000000000000 0.072914594090406112 -3.9340037420350894e-06 
0.072916666666666671 0.010416666666666666 0.0000000000000000 -1.7450848190135759e-06 -3.7308019576248737e-06 1.4882379313243181 1.0307700378834225e-06 -5.1699542392183083e-07 0.072916666666666671 0.010416666666666666 0.072914921581847661 0.010412935864709040 
0.083333333333333329 0.0000000000000000 0.0000000000000000 -2.2611048660086473e-06 -4.2685425425380169e-06 1.3550232142319913 7.2194960881118893e-07 0.0000000000000000 0.083333333333333329 0.0000000000000000 0.083331072228467321 -4.2685425425380169e-06 
0.083333333333333329 0.010416666666666666 0.0000000000000000 -1.9445854989936782e-06 -4.0759351757622174e-06 1.3927009629934570 8.1990112524182201e-07 -4.1505917807181780e-07 0.083333333333333329 0.010416666666666666 0.083331388747834315 0.010412590731490904 
0.093750000000000000 0.0000000000000000 0.0000000000000000 -2.4419557442286600e-06 -4.5911746949681935e-06 1.2848410197387723 5.9917061882594379e-07 0.0000000000000000 0.093750000000000000 0.0000000000000000 0.093747558044255774 -4.5911746949681935e-06 
0.093750000000000000 0.010416666666666666 0.0000000000000000 -2.1342824890276607e-06 -4.4074253128139977e-06 1.3155470880984514 6.7443729059391675e-07 -3.3566252334308834e-07 0.093750000000000000 0.010416666666666666 0.093747865717510967 0.010412259241353852 
0.10416666666666667 0.0000000000000000 0.0000000000000000 -2.6161089211601175e-06 -4.9044942501529355e-06 1.2257030372033644 5.1298793034513241e-07 0.0000000000000000 0.10416666666666667 0.0000000000000000 0.10416405055774551 -4.9044942501529355e-06 
0.10416666666666667 0.010416666666666666 0.0000000000000000 -2.3155785883574544e-06 -4.7283718828180888e-06 1.2511785668533888 5.7130492634675148e-07 -2.7355119254982390e-07 0.10416666666666667 0.010416666666666666 0.10416435108807831 0.010411938294783847 
0.11458333333333333 0.0000000000000000 0.0000000000000000 -2.7842704635917909e-06 -5.2104299039166123e-06 1.1744941829791695 4.5043759544578737e-07 0.0000000000000000 0.11458333333333333 0.0000000000000000 0.11458054906286974 -5.2104299039166123e-06 
0.11458333333333333 0.010416666666666666 0.0000000000000000 -2.4895219294398552e-06 -5.0410330571731679e-06 1.1959660050506580 4.9613068340598175e-07 -2.2445397594731712e-07 0.11458333333333333 0.010416666666666666 0.11458084381140389 0.010411625633609494 
0.12500000000000000 0.0000000000000000 0.0000000000000000 -2.9469692825065304e-06 -5.5104543685437550e-06 1.1291487510105804 4.0366984617650831e-07 0.0000000000000000 0.12500000000000000 0.0000000000000000 0.12499705303071749 -5.5104543685437550e-06 
0.12500000000000000 0.010416666666666666 0.0000000000000000 -2.6569110849212732e-06 -5.3471041343154444e-06 1.1474983034831310 4.3989378175040000e-07 -1.8520629503019104e-07 0.12500000000000000 0.010416666666666666 0.12499734308891508 0.010411319562532351 
0.13541666666666666 0.0000000000000000 0.0000000000000000 -3.1046135236374824e-06 -5.8057156783926638e-06 1.0882549739339107 3.6779191025016147e-07 0.0000000000000000 0.13541666666666666 0.0000000000000000 0.13541356205314303 -5.8057156783926638e-06 
0.13541666666666666 0.010416666666666666 0.0000000000000000 -2.8183652834720421e-06 -5.6478884583241443e-06 1.1041295690157169 3.9682243040282034e-07 -1.5350191865402473e-07 0.13541666666666666 0.010416666666666666 0.13541384830138317 0.010411018778208341 
0.14583333333333334 0.0000000000000000 0.0000000000000000 -3.2575254936921938e-06 -6.0971233756759562e-06 1.0508195578267516 3.3965569274829194e-07 0.0000000000000000 0.14583333333333334 0.0000000000000000 0.14583007580783966 -6.0971233756759562e-06 
0.14583333333333334 0.010416666666666666 0.0000000000000000 -2.9743724354276232e-06 -5.9444070642378439e-06 1.0647050549581494 3.6314040938805174e-07 -1.2765851208518832e-07 0.14583333333333334 0.010416666666666666 0.14583035896089791 0.010410722259602429 
0.15625000000000000 0.0000000000000000 0.0000000000000000 -3.4059644841145667e-06 -6.3854072465282107e-06 1.0161247753793523 3.1717048366779123e-07 0.0000000000000000 0.15625000000000000 0.0000000000000000 0.15624659403551588 -6.3854072465282107e-06 
0.15625000000000000 0.010416666666666666 0.0000000000000000 -3.1253226648864844e-06 -6.2374717586716872e-06 1.0283933288109310 3.3631494019904136e-07 -1.0643681384794844e-07 0.15625000000000000 0.010416666666666666 0.15624687467733511 0.010410429194907993 
0.16666666666666666 0.0000000000000000 0.0000000000000000 -3.5501423703665364e-06 -6.6711586398556669e-06 0.98363965843255485 2.9890493295155656e-07 0.0000000000000000 0.16666666666666666 0.0000000000000000 0.16666311652429630 -6.6711586398556669e-06 
0.16666666666666666 0.010416666666666666 0.0000000000000000 -3.2715321644785704e-06 -6.5277354953424934e-06 0.99458154802249787 3.1460351094657901e-07 -8.8910601102822087e-08 0.16666666666666666 0.010416666666666666 0.16666339513450221 0.010410138931171322 
0.17708333333333334 0.0000000000000000 0.0000000000000000 -3.6902346677391475e-06 -6.9548603269881312e-06 0.95296334285699835 2.8385122263893075e-07 0.0000000000000000 0.17708333333333334 0.0000000000000000 0.17707964309866561 -6.9548603269881312e-06 
0.17708333333333334 0.010416666666666666 0.0000000000000000 -3.4132604606134854e-06 -6.8157281316585388e-06 0.96280860629514153 2.9677754577333153e-07 -7.4376672938075919e-08 0.17708333333333334 0.010416666666666666 0.17707992007287274 0.010409850938535010 
0.18750000000000000 0.0000000000000000 0.0000000000000000 -3.8263885971209499e-06 -7.2369085839486214e-06 0.92378792781055485 2.7128169458304135e-07 0.0000000000000000 0.18750000000000000 0.0000000000000000 0.18749617361140289 -7.2369085839486214e-06 
0.18750000000000000 0.010416666666666666 0.0000000000000000 -3.5507231113058609e-06 -7.1018824630562770e-06 0.93272137801138877 2.8195085326952660e-07 -6.2292828574646539e-08 0.18750000000000000 0.010416666666666666 0.18749644927688869 0.010409564784203610 
0.19791666666666666 0.0000000000000000 0.0000000000000000 -3.9587291069266899e-06 -7.5176298510726066e-06 0.89587346573154647 2.6065925000796310e-07 0.0000000000000000 0.19791666666666666 0.0000000000000000 0.19791270793755969 -7.5176298510726066e-06 
0.19791666666666666 0.010416666666666666 0.0000000000000000 -3.6841011854567930e-06 -7.3865536021086834e-06 0.90404534271299397 2.6947086457149403e-07 -5.2234914111931503e-08 0.19791666666666666 0.010416666666666666 0.19791298256548120 0.010409280113064558 
0.20833333333333334 0.0000000000000000 0.0000000000000000 -4.0873634539803478e-06 -7.7972935221472362e-06 0.86903068759074309 2.5157976963733892e-07 0.0000000000000000 0.20833333333333334 0.0000000000000000 0.20832924596987937 -7.7972935221472362e-06 
0.20833333333333334 0.010416666666666666 0.0000000000000000 -3.8135484385786922e-06 -7.6700336838917501e-06 0.87656437098837614 2.5884810482639390e-07 -4.3866715752117648e-08 0.20833333333333334 0.010416666666666666 0.20832951978489475 0.010408996632982774 
0.21875000000000000 0.0000000000000000 0.0000000000000000 -4.2123847424965295e-06 -8.0761219137534763e-06 0.84310878895348218 2.4373409418326934e-07 0.0000000000000000 0.21875000000000000 0.0000000000000000 0.21874578761525751 -8.0761219137534763e-06 
0.21875000000000000 0.010416666666666666 0.0000000000000000 -3.9391968154064423e-06 -7.9525632142864975e-06 0.85010648955741697 2.4970939472915164e-07 -3.6918536988320563e-08 0.21875000000000000 0.010416666666666666 0.21874606080318459 0.010408714103452380 
0.22916666666666666 0.0000000000000000 0.0000000000000000 -4.3338746941166144e-06 -8.3542981428983852e-06 0.81798661049747512 2.3688227277506910e-07 0.0000000000000000 0.22916666666666666 0.0000000000000000 0.22916233279197254 -8.3542981428983852e-06 
0.22916666666666666 0.010416666666666666 0.0000000000000000 -4.0611607202588219e-06 -8.2343399585884113e-06 0.82453364335721180 2.4176609498880550e-07 -3.1171708783445663e-08 0.22916666666666666 0.010416666666666666 0.22916260550594639 0.010408432326708078 
0.23958333333333334 0.0000000000000000 0.0000000000000000 -4.4519058406733748e-06 -8.6319724280529023e-06 0.79356614905603118 2.3083570943650990e-07 0.0000000000000000 0.23958333333333334 0.0000000000000000 0.23957888142749270 -8.6319724280529023e-06 
0.23958333333333334 0.010416666666666666 0.0000000000000000 -4.1795403678271454e-06 -8.5155259960480385e-06 0.79973419149916969 2.3479209800035884e-07 -2.6447211522626667e-08 0.23958333333333334 0.010416666666666666 0.23957915379296549 0.010408151140670618 
0.25000000000000000 0.0000000000000000 0.0000000000000000 -4.5665432772387087e-06 -8.9092671848132083e-06 0.76976770330475086 2.2544452315684055e-07 0.0000000000000000 0.25000000000000000 0.0000000000000000 0.24999543345672279 -8.9092671848132083e-06 
0.25000000000000000 0.010416666666666666 0.0000000000000000 -4.2944244391657230e-06 -8.7962533854173862e-06 0.77561731339382645 2.2860827399525539e-07 -2.2597192226149974e-08 0.25000000000000000 0.010416666666666666 0.24999570557556083 0.010407870413281249 
0.26041666666666669 0.0000000000000000 0.0000000000000000 -4.6778460759684516e-06 -9.1862811881391586e-06 0.74652618833695839 2.2058843058388886e-07 0.0000000000000000 0.26041666666666669 0.0000000000000000 0.26041198882059069 -9.1862811881391586e-06 
0.26041666666666669 0.010416666666666666 0.0000000000000000 -4.4058922065624929e-06 -9.0766287638849562e-06 0.75210877568722811 2.2307128128614140e-07 -1.9498553411305784e-08 0.26041666666666669 0.010416666666666666 0.26041226077446011 0.010407590037902781 
0.27083333333333331 0.0000000000000000 0.0000000000000000 -4.7858684353223301e-06 -9.4630930033616486e-06 0.72378830064972000 2.1617005982890746e-07 0.0000000000000000 0.27083333333333331 0.0000000000000000 0.27082854746489798 -9.4630930033616486e-06 
0.27083333333333331 0.010416666666666666 0.0000000000000000 -4.5140152479487356e-06 -9.3567371166947323e-06 0.72914768576463684 2.1806538542190071e-07 -1.7048047325887767e-08 0.27083333333333331 0.010416666666666666 0.27082881931808539 0.010407309929549970 
0.28125000000000000 0.0000000000000000 0.0000000000000000 -4.8906606207303689e-06 -9.7397638382941015e-06 0.70151031146850462 2.1210997436896585e-07 0.0000000000000000 0.28125000000000000 0.0000000000000000 0.28124510933937930 -9.7397638382941015e-06 
0.28125000000000000 0.010416666666666666 0.0000000000000000 -4.6188588408357324e-06 -9.6366448946451983e-06 0.70668397182278486 2.1349639053243621e-07 -1.5158479873629136e-08 0.28125000000000000 0.010416666666666666 0.28124538114115921 0.010407030021772021 
0.29166666666666669 0.0000000000000000 0.0000000000000000 -4.9922697393609445e-06 -1.0016339932610457e-05 0.67965633080380738 2.0834292049062229e-07 0.0000000000000000 0.29166666666666669 0.0000000000000000 0.29166167439692731 -1.0016339932610457e-05 
0.29166666666666669 0.010416666666666666 0.0000000000000000 -4.7204831036361118e-06 -9.9164026135115093e-06 0.68467640562952858 2.0928707789154040e-07 -1.3755743368274616e-08 0.29166666666666669 0.010416666666666666 0.29166194618356306 0.010406750264053155 
0.30208333333333331 0.0000000000000000 0.0000000000000000 -5.0907403817867056e-06 -1.0292854574045015e-05 0.65819692859790180 2.0481496352746840e-07 0.0000000000000000 0.30208333333333331 0.0000000000000000 0.30207824259295152 -1.0292854574045015e-05 
0.30208333333333331 0.010416666666666666 0.0000000000000000 -4.8189439360773831e-06 -1.0196047037986445e-05 0.66309103581105733 2.0537373611288135e-07 -1.2776475734219493e-08 0.30208333333333331 0.010416666666666666 0.30207851438939720 0.010406470619628681 
0.31250000000000000 0.0000000000000000 0.0000000000000000 -5.1861151560137581e-06 -1.0569329811153972e-05 0.63710802984634107 2.0148127851573976e-07 0.0000000000000000 0.31250000000000000 0.0000000000000000 0.31249481388484401 -1.0569329811153972e-05 
0.31250000000000000 0.010416666666666666 0.0000000000000000 -4.9142937985001707e-06 -1.0475603029509373e-05 0.64189993529307887 2.0170349269619089e-07 -1.2166198316876913e-08 0.31250000000000000 0.010416666666666666 0.31249508570620149 0.010406191063637158 
0.32291666666666669 0.0000000000000000 0.0000000000000000 -5.2784351338300995e-06 -1.0845777917451705e-05 0.61637002212230441 1.9830442860340842e-07 0.0000000000000000 0.32291666666666669 0.0000000000000000 0.32291138823153287 -1.0845777917451705e-05 
0.32291666666666669 0.010416666666666666 0.0000000000000000 -5.0065823609529028e-06 -1.0755085119988946e-05 0.62108019169383955 1.9823224108602175e-07 -1.1877822920276518e-08 0.32291666666666669 0.010416666666666666 0.32291166008430577 0.010405911581546677 
0.33333333333333331 0.0000000000000000 0.0000000000000000 -5.3677402252491319e-06 -1.1122202650374923e-05 0.59596702935866197 1.9525301104390754e-07 0.0000000000000000 0.33333333333333331 0.0000000000000000 0.33332796559310807 -1.1122202650374923e-05 
0.33333333333333331 0.010416666666666666 0.0000000000000000 -5.0958570463101318e-06 -1.1034498860300933e-05 0.60061308743788377 1.9492301523782801e-07 -1.1870446201917709e-08 0.33333333333333331 0.010416666666666666 0.33332823747628698 0.010405632167806366 
0.34375000000000000 0.0000000000000000 0.0000000000000000 -5.4540694936238764e-06 -1.1398600339798120e-05 0.57588631693723014 1.9230058298582709e-07 0.0000000000000000 0.34375000000000000 0.0000000000000000 0.34374454593050635 -1.1398600339798120e-05 
0.34375000000000000 0.010416666666666666 0.0000000000000000 -5.1821634865642070e-06 -1.1313841982421317e-05 0.58048342936394015 1.9174470392133651e-07 -1.2108369520535550e-08 0.34375000000000000 0.010416666666666666 0.34374481783651345 0.010405352824684244 
0.35416666666666669 0.0000000000000000 0.0000000000000000 -5.5374614215370244e-06 -1.1674960834056716e-05 0.55611780135459188 1.8942480227419763e-07 0.0000000000000000 0.35416666666666669 0.0000000000000000 0.35416112920524517 -1.1674960834056716e-05 
0.35416666666666669 0.010416666666666666 0.0000000000000000 -5.2655459075488854e-06 -1.1593105406331650e-05 0.56067899712587221 1.8867102541949301e-07 -1.2560296966900988e-08 0.35416666666666669 0.010416666666666666 0.35416140112075917 0.010405073561260332 
0.36458333333333331 0.0000000000000000 0.0000000000000000 -5.6179541356498577e-06 -1.1951268326146908e-05 0.53665364383598935 1.8660673486300694e-07 0.0000000000000000 0.36458333333333331 0.0000000000000000 0.36457771537919764 -1.1951268326146908e-05 
0.36458333333333331 0.010416666666666666 0.0000000000000000 -5.3460474543470994e-06 -1.1872274116832002e-05 0.54119008674052715 1.8567970354668365e-07 -1.3198675172871350e-08 0.36458333333333331 0.010416666666666666 0.36457798728587898 0.010404794392549835 
0.37500000000000000 0.0000000000000000 0.0000000000000000 -5.6955855971859766e-06 -1.2227502078607420e-05 0.51748791184351195 1.8383029244100252e-07 0.0000000000000000 0.37500000000000000 0.0000000000000000 0.37499430441440279 -1.2227502078607420e-05 
0.37500000000000000 0.010416666666666666 0.0000000000000000 -5.4237104672936403e-06 -1.2151327930694089e-05 0.52200913091511836 1.8275180061344808e-07 -1.3999146631775846e-08 0.37500000000000000 0.010416666666666666 0.37499457628953264 0.010404515338735971 
0.38541666666666669 0.0000000000000000 0.0000000000000000 -5.7703937635358866e-06 -1.2503637062287619e-05 0.49861629588557294 1.8108177256383722e-07 0.0000000000000000 0.38541666666666669 0.0000000000000000 0.38541089627290309 -1.2503637062287619e-05 
0.38541666666666669 0.010416666666666666 0.0000000000000000 -5.4985767166461777e-06 -1.2430242170877071e-05 0.50313038177229930 1.7987117369629229e-07 -1.4940094434930183e-08 0.38541666666666669 0.010416666666666666 0.38541116808994996 0.010404236424495788 
0.39583333333333331 0.0000000000000000 0.0000000000000000 -5.8424167255220406e-06 -1.2779644521573186e-05 0.48003587167544542 1.7834948009774167e-07 0.0000000000000000 0.39583333333333331 0.0000000000000000 0.39582749091660779 -1.2779644521573186e-05 
0.39583333333333331 0.010416666666666666 0.0000000000000000 -5.5706876025460631e-06 -1.2708988261580991e-05 0.48454964462698497 1.7702402849489457e-07 -1.6002261007191373e-08 0.39583333333333331 0.010416666666666666 0.39582776264573077 0.010403957678405086 
0.40625000000000000 0.0000000000000000 0.0000000000000000 -5.9116928241060493e-06 -1.3055492476526266e-05 0.46174489971682026 1.7562341362139520e-07 0.0000000000000000 0.40625000000000000 0.0000000000000000 0.40624408830717590 -1.3055492476526266e-05 
0.40625000000000000 0.010416666666666666 0.0000000000000000 -5.6400843257345836e-06 -1.2987534255556581e-05 0.46626405379966102 1.7419855096709785e-07 -1.7168427055916168e-08 0.40625000000000000 0.010416666666666666 0.40624435991567426 0.010403679132411109 
0.41666666666666669 0.0000000000000000 0.0000000000000000 -5.9782607497089545e-06 -1.3331146170690630e-05 0.44374265596697887 1.7289500404339760e-07 0.0000000000000000 0.41666666666666669 0.0000000000000000 0.41666068840591697 -1.3331146170690630e-05 
0.41666666666666669 0.010416666666666666 0.0000000000000000 -5.7068080335643518e-06 -1.3265845303195144e-05 0.44827188325285289 1.7138460138124043e-07 -1.8423139724080537e-08 0.41666666666666669 0.010416666666666666 0.41666095985863311 0.010403400821363470 
0.42708333333333331 0.0000000000000000 0.0000000000000000 -6.0421596268196461e-06 -1.3606568471928945e-05 0.42602928845432547 1.7015689552347451e-07 0.0000000000000000 0.42708333333333331 0.0000000000000000 0.42707729117370646 -1.3606568471928945e-05 
0.42708333333333331 0.010416666666666666 0.0000000000000000 -5.7708999450987041e-06 -1.3543884071391561e-05 0.43057238624138688 1.6857345878314954e-07 -1.9752481130976283e-08 0.42708333333333331 0.010416666666666666 0.42707756243338829 0.010403122782595274 
0.43750000000000000 0.0000000000000000 0.0000000000000000 -6.1034290861614400e-06 -1.3881720232530711e-05 0.40860569568902766 1.6740276083988273e-07 0.0000000000000000 0.43750000000000000 0.0000000000000000 0.43749389657091386 -1.3881720232530711e-05 
0.43750000000000000 0.010416666666666666 0.0000000000000000 -5.8324014584857787e-06 -1.3821611118928991e-05 0.41316565926635324 1.6575760645487323e-07 -2.1143870189046053e-08 0.43750000000000000 0.010416666666666666 0.43749416759854148 0.010402845055547739 
0.44791666666666669 0.0000000000000000 0.0000000000000000 -6.1621093263538810e-06 -1.4156560613906004e-05 0.39147342346538033 1.6462714502079252e-07 0.0000000000000000 0.44791666666666669 0.0000000000000000 0.44791050455734033 -1.4156560613906004e-05 
0.44791666666666669 0.010416666666666666 0.0000000000000000 -5.8913542432987013e-06 -1.4098985234118618e-05 0.39605252649025841 1.6293055090647073e-07 -2.2585891933643521e-08 0.44791666666666669 0.010416666666666666 0.44791077531242340 0.010402567681432549 
0.45833333333333331 0.0000000000000000 0.0000000000000000 -6.2182411667310128e-06 -1.4431047380422037e-05 0.37463457725692634 1.6182533231791814e-07 0.0000000000000000 0.45833333333333331 0.0000000000000000 0.45832711509216656 -1.4431047380422037e-05 
0.45833333333333331 0.010416666666666666 0.0000000000000000 -5.9478003201262066e-06 -1.4375963739596616e-05 0.37923444145787483 1.6008666849006754e-07 -2.4068149664088904e-08 0.45833333333333331 0.010416666666666666 0.45832738553301317 0.010402290702927071 
0.46875000000000000 0.0000000000000000 0.0000000000000000 -6.2718660927477051e-06 -1.4705137166313888e-05 0.35809174788628173 1.5899323255583932e-07 0.0000000000000000 0.46875000000000000 0.0000000000000000 0.46874372813390724 -1.4705137166313888e-05 
0.46875000000000000 0.010416666666666666 0.0000000000000000 -6.0017821293611221e-06 -1.4652502768496425e-05 0.36271340351510067 1.5722107490085864e-07 -2.5581136061363126e-08 0.46875000000000000 0.010416666666666666 0.46874399821787066 0.010402014163898172 
0.47916666666666669 0.0000000000000000 0.0000000000000000 -6.3230262952125795e-06 -1.4978785719083230e-05 0.34184794853670453 1.5612728373150917e-07 0.0000000000000000 0.47916666666666669 0.0000000000000000 0.47916034364037147 -1.4978785719083230e-05 
0.47916666666666669 0.010416666666666666 0.0000000000000000 -6.0533425908537210e-06 -1.4928557515650218e-05 0.34649188675657833 1.5432951378107697e-07 -2.7116120111177946e-08 0.47916666666666669 0.010416666666666666 0.47916061332407583 0.010401738109151015 
0.48958333333333331 0.0000000000000000 0.0000000000000000 -6.3717647044231027e-06 -1.5251948122371075e-05 0.32590656148178593 1.5322436828213578e-07 0.0000000000000000 0.48958333333333331 0.0000000000000000 0.48957696156862890 -1.5251948122371075e-05 
0.48958333333333331 0.010416666666666666 0.0000000000000000 -6.1025251558615709e-06 -1.5204082467007693e-05 0.33057277968461851 1.5140826138188154e-07 -2.8665047232878829e-08 0.48958333333333331 0.010416666666666666 0.48957723080817744 0.010401462584199659 
0.50000000000000000 0.0000000000000000 0.0000000000000000 -6.4181250201394184e-06 -1.5524579000934457e-05 0.31027129316010749 1.5028174097870973e-07 0.0000000000000000 0.50000000000000000 0.0000000000000000 0.49999358187497989 -1.5524579000934457e-05 
0.50000000000000000 0.010416666666666666 0.0000000000000000 -6.1493738525289157e-06 -1.5479031610073576e-05 0.31495933404631771 1.4845404480638454e-07 -3.0220450425407216e-08 0.50000000000000000 0.010416666666666666 0.49999385062614748 0.010401187635056595 
0.51041666666666663 0.0000000000000000 0.0000000000000000 -6.4621517382140645e-06 -1.5796632710061172e-05 0.29494613642266171 1.4729696678902568e-07 0.0000000000000000 0.51041666666666663 0.0000000000000000 0.51041020451492847 -1.5796632710061172e-05 
0.51041666666666663 0.010416666666666666 0.0000000000000000 -6.1939333259596025e-06 -1.5753358627845150e-05 0.29965512154498708 1.4546397186720661e-07 -3.1775370633216914e-08 0.51041666666666663 0.010416666666666666 0.51041047273334073 0.010400913308038821 
0.52083333333333337 0.0000000000000000 0.0000000000000000 -6.5038901745912873e-06 -1.6068063511512265e-05 0.27993533894447270 1.4426786734397092e-07 0.0000000000000000 0.52083333333333337 0.0000000000000000 0.52082682944315883 -1.6068063511512265e-05 
0.52083333333333337 0.010416666666666666 0.0000000000000000 -6.2362488738024056e-06 -1.6027017078465979e-05 0.28466399730724889 1.4243547093279991e-07 -3.3323284803279392e-08 0.52083333333333337 0.010416666666666666 0.52082709708445962 0.010400639649588201 
0.53125000000000000 0.0000000000000000 0.0000000000000000 -6.5433864872989219e-06 -1.6338825737877233e-05 0.26524337692337713 1.4119247494051707e-07 0.0000000000000000 0.53125000000000000 0.0000000000000000 0.53124345661351269 -1.6338825737877233e-05 
0.53125000000000000 0.010416666666666666 0.0000000000000000 -6.2763664781421070e-06 -1.6299960562591857e-05 0.26999006913738838 1.3936623947457872e-07 -3.4858040348291232e-08 0.53125000000000000 0.010416666666666666 0.53124372363352190 0.010400366706104074 
0.54166666666666663 0.0000000000000000 0.0000000000000000 -6.5806876969756056e-06 -1.6608873947059975e-05 0.25087493329446869 1.3806899320647415e-07 0.0000000000000000 0.54166666666666663 0.0000000000000000 0.54166008597896964 -1.6608873947059975e-05 
0.54166666666666663 0.010416666666666666 0.0000000000000000 -6.3143328343796369e-06 -1.6572142880284366e-05 0.25563767171091467 1.3625420027161960e-07 -3.6373794928927275e-08 0.54166666666666663 0.010416666666666666 0.54166035233383225 0.010400094523786381 
0.55208333333333337 0.0000000000000000 0.0000000000000000 -6.6158417064041022e-06 -1.6878163068474624e-05 0.23683487977324177 1.3489576372531800e-07 0.0000000000000000 0.55208333333333337 0.0000000000000000 0.55207671749162701 -1.6878163068474624e-05 
0.55208333333333337 0.010416666666666666 0.0000000000000000 -6.3501953776874166e-06 -1.6843518179098586e-05 0.24161134495583436 1.3309746444611889e-07 -3.7864960618245532e-08 0.55208333333333337 0.010416666666666666 0.55207698313795561 0.010399823148487567 
0.56250000000000000 0.0000000000000000 0.0000000000000000 -6.6488973194559715e-06 -1.7146648542418297e-05 0.22312826210578141 1.3167123811984013e-07 0.0000000000000000 0.56250000000000000 0.0000000000000000 0.56249335110268051 -1.7146648542418297e-05 
0.56250000000000000 0.010416666666666666 0.0000000000000000 -6.3840023075387233e-06 -1.7114041094911012e-05 0.22791581594630880 1.2989430067963776e-07 -3.9326151644266603e-08 0.56250000000000000 0.010416666666666666 0.56249361599769243 0.010399552625571755 
0.57291666666666663 0.0000000000000000 0.0000000000000000 -6.6799042597923964e-06 -1.7414286453997939e-05 0.20976028795481624 1.2839395514959017e-07 0.0000000000000000 0.57291666666666663 0.0000000000000000 0.57290998676240679 -1.7414286453997939e-05 
0.57291666666666663 0.010416666666666666 0.0000000000000000 -6.4158026107304461e-06 -1.7383666886937914e-05 0.21455598369155637 1.2664311013431137e-07 -4.0752135026161724e-08 0.57291666666666663 0.010416666666666666 0.57291025086405589 0.010399282999779729 
0.58333333333333337 0.0000000000000000 0.0000000000000000 -6.7089131896088597e-06 -1.7681033662917318e-05 0.19673631688669294 1.2506252258610273e-07 0.0000000000000000 0.58333333333333337 0.0000000000000000 0.58332662442014371 -1.7681033662917318e-05 
0.58333333333333337 0.010416666666666666 0.0000000000000000 -6.4456460832451323e-06 -1.7652351568318514e-05 0.20153690624675810 1.2334240670250187e-07 -4.2137783464856357e-08 0.58333333333333337 0.010416666666666666 0.58332688768725027 0.010399014315098348 
0.59375000000000000 0.0000000000000000 0.0000000000000000 -6.7359757286567999e-06 -1.7946847930377284e-05 0.18406185194701655 1.2167560367433264e-07 0.0000000000000000 0.59375000000000000 0.0000000000000000 0.59374326402427136 -1.7946847930377284e-05 
0.59375000000000000 0.010416666666666666 0.0000000000000000 -6.4735833512286680e-06 -1.7920052033581783e-05 0.18886378960191585 1.1999080239682784e-07 -4.3478029987971679e-08 0.59375000000000000 0.010416666666666666 0.59374352641664874 0.010398746614633083 
0.60416666666666663 0.0000000000000000 0.0000000000000000 -6.7611444737216020e-06 -1.8211688044304537e-05 0.17174253232519221 1.1823190811597072e-07 0.0000000000000000 0.60416666666666663 0.0000000000000000 0.60415990552219290 -1.8211688044304537e-05 