# For a description of the Tecplot format see the Tecplot User's guide.
#
Variables=x,y,z,s_u,s_v,s_p,x,y,ref_u,ref_v,u,v
Zone f=fepoint, n=4225, e=8192, et=quadrilateral, c=black
0.00000 0.00000 0.00000 0.0000000000000000 0.0000000000000000 3.3349026695477901 0.0000000000000000 0.0000000000000000 0.0000000000000000 0.0000000000000000 0.0000000000000000 0.0000000000000000 
0.015625000000000000 0.0000000000000000 0.0000000000000000 -6.9675552609273314e-07 -1.5103147260737910e-06 2.7911184746591631 7.6053036812320336e-06 0.0000000000000000 0.015625000000000000 0.0000000000000000 0.015624303244473907 -1.5103147260737910e-06 
0.015625000000000000 0.015625000000000000 0.0000000000000000 -1.8153287682491177e-07 -9.7378368767254449e-07 2.9251198900120721 4.6615430388719821e-06 1.0828505869479838e-06 0.015625000000000000 0.015625000000000000 0.015624818467123174 0.015624026216312327 
0.0000000000000000 0.015625000000000000 0.0000000000000000 0.0000000000000000 0.0000000000000000 3.1008884141424282 0.0000000000000000 4.3621881330810623e-06 0.0000000000000000 0.015625000000000000 0.0000000000000000 0.015625000000000000 
0.031250000000000000 0.0000000000000000 0.0000000000000000 -1.1504343924870042e-06 -2.3351496467591154e-06 2.1661675774183244 3.0731336572534283e-06 0.0000000000000000 0.031250000000000000 0.0000000000000000 0.031248849565607514 -2.3351496467591154e-06 
0.031250000000000000 0.015625000000000000 0.0000000000000000 -6.2060189481653534e-07 -1.9021993922819869e-06 2.3517771124737110 2.9446666313804628e-06 -1.6756974617654051e-06 0.031250000000000000 0.015625000000000000 0.031249379398105185 0.015623097800607720 
0.046875000000000000 0.0000000000000000 0.0000000000000000 -1.5174406037725913e-06 -2.9819259554249526e-06 1.7863563116528913 1.8661719435389889e-06 0.0000000000000000 0.046875000000000000 0.0000000000000000 0.046873482559396225 -2.9819259554249526e-06 
0.046875000000000000 0.015625000000000000 0.0000000000000000 -1.0072756185170612e-06 -2.6140896395657531e-06 1.9227340151870467 2.1859073189930476e-06 -1.0452694297564944e-06 0.046875000000000000 0.015625000000000000 0.046873992724381482 0.015622385910360434 
0.062500000000000000 0.0000000000000000 0.0000000000000000 -1.8394413346621449e-06 -3.5463546745884047e-06 1.5503815324242070 1.1922484832080868e-06 0.0000000000000000 0.062500000000000000 0.0000000000000000 0.062498160558665340 -3.5463546745884047e-06 
0.062500000000000000 0.015625000000000000 0.0000000000000000 -1.3528154473233258e-06 -3.2201103473404647e-06 1.6453192997702815 1.3854135114938754e-06 -8.0041443672810714e-07 0.062500000000000000 0.015625000000000000 0.062498647184552676 0.015621779889652659 
0.078125000000000000 0.0000000000000000 0.0000000000000000 -2.1332452993196349e-06 -4.0628553897857539e-06 1.3920935689736968 8.2133305366275004e-07 0.0000000000000000 0.078125000000000000 0.0000000000000000 0.078122866754700676 -4.0628553897857539e-06 
0.078125000000000000 0.015625000000000000 0.0000000000000000 -1.6673787048567873e-06 -3.7654968917280037e-06 1.4597845321727700 9.7017914373452652e-07 -5.7024909344459897e-07 0.078125000000000000 0.015625000000000000 0.078123332621295130 0.015621234503108273 
0.093750000000000000 0.0000000000000000 0.0000000000000000 -2.4069238023112591e-06 -4.5483870074356387e-06 1.2778356536683120 6.1353325493141465e-07 0.0000000000000000 0.093750000000000000 0.0000000000000000 0.093747593076197691 -4.5483870074356387e-06 
0.093750000000000000 0.015625000000000000 0.0000000000000000 -1.9577853981978359e-06 -4.2726458504203685e-06 1.3279263468462850 7.1912922736468480e-07 -4.2048923946315446e-07 0.093750000000000000 0.015625000000000000 0.093748042214601798 0.015620727354149580 
0.10937500000000000 0.0000000000000000 0.0000000000000000 -2.6648440164899792e-06 -5.0127225221331913e-06 1.1896941541040194 4.8833381818156756e-07 0.0000000000000000 0.10937500000000000 0.0000000000000000 0.10937233515598350 -5.0127225221331913e-06 
0.10937500000000000 0.015625000000000000 0.0000000000000000 -2.2286876356673875e-06 -4.7541877214111371e-06 1.2281176248805288 5.6371492391509525e-07 -3.1564179578315738e-07 0.10937500000000000 0.015625000000000000 0.10937277131236434 0.015620245812278588 
0.12500000000000000 0.0000000000000000 0.0000000000000000 -2.9095940293882747e-06 -5.4620670867927136e-06 1.1178601643757509 4.0883911816887696e-07 0.0000000000000000 0.12500000000000000 0.0000000000000000 0.12499709040597061 -5.4620670867927136e-06 
0.12500000000000000 0.015625000000000000 0.0000000000000000 -2.4833193193898083e-06 -5.2179117977997592e-06 1.1482885114727626 4.6353699117712891e-07 -2.4144233720162532e-07 0.12500000000000000 0.015625000000000000 0.12499751668068061 0.015619782088202199 
0.14062500000000000 0.0000000000000000 0.0000000000000000 -3.1428233640874098e-06 -5.9006064549632999e-06 1.0567348471701870 3.5573057974592099e-07 0.0000000000000000 0.14062500000000000 0.0000000000000000 0.14062185717663592 -5.9006064549632999e-06 
0.14062500000000000 0.015625000000000000 0.0000000000000000 -2.7239763230484578e-06 -5.6689288804367960e-06 1.0815043879770181 3.9596640414284877e-07 -1.8760912189792087e-07 0.14062500000000000 0.015625000000000000 0.14062227602367694 0.015619331071119564 
0.15625000000000000 0.0000000000000000 0.0000000000000000 -3.3656481235441867e-06 -6.3312809526961173e-06 1.0029720807199325 3.1859314060585970e-07 0.0000000000000000 0.15625000000000000 0.0000000000000000 0.15624663435187647 -6.3312809526961173e-06 
0.15625000000000000 0.015625000000000000 0.0000000000000000 -2.9523225699321040e-06 -6.1107467049542036e-06 1.0236250475137070 3.4855985300225378e-07 -1.4777372744857716e-07 0.15625000000000000 0.015625000000000000 0.15624704767743006 0.015618889253295047 
0.17187500000000000 0.0000000000000000 0.0000000000000000 -3.5788615083834839e-06 -6.7562137331692079e-06 0.95448041547464102 2.9158322498648714e-07 0.0000000000000000 0.17187500000000000 0.0000000000000000 0.17187142113849160 -6.7562137331692079e-06 
0.17187500000000000 0.015625000000000000 0.0000000000000000 -3.1695888065998848e-06 -6.5458519539077228e-06 0.97207304979112930 3.1410908602154869e-07 -1.1786358483218207e-07 0.17187500000000000 0.015625000000000000 0.17187183041119339 0.015618454148046093 
0.18750000000000000 0.0000000000000000 0.0000000000000000 -3.7830507784653991e-06 -7.1769665774691091e-06 0.90989746732911181 2.7125911691189283e-07 0.0000000000000000 0.18750000000000000 0.0000000000000000 0.18749621694922150 -7.1769665774691091e-06 
0.18750000000000000 0.015625000000000000 0.0000000000000000 -3.3767040557045652e-06 -6.9760482492491681e-06 0.92517750540304144 2.8828654210239506e-07 -9.5186902245201155e-08 0.18750000000000000 0.015625000000000000 0.18749662329594430 0.015618023951750751 
0.20312500000000000 0.0000000000000000 0.0000000000000000 -3.9786661673850251e-06 -7.5947016346335308e-06 0.86830327999619161 2.5550233351537479e-07 0.0000000000000000 0.20312500000000000 0.0000000000000000 0.20312102133383261 -7.5947016346335308e-06 
0.20312500000000000 0.015625000000000000 0.0000000000000000 -3.5743839275026076e-06 -7.4026637639031966e-06 0.88181521787765471 2.6839264169514489e-07 -7.7910250925371194e-08 0.20312500000000000 0.015625000000000000 0.20312142561607249 0.015617597336236097 
0.21875000000000000 0.0000000000000000 0.0000000000000000 -4.1660636634402926e-06 -8.0102883406103464e-06 0.82905777017233329 2.4295339214604194e-07 0.0000000000000000 0.21875000000000000 0.0000000000000000 0.21874583393633654 -8.0102883406103464e-06 
0.21875000000000000 0.015625000000000000 0.0000000000000000 -3.7631909188785042e-06 -7.8266848500826542e-06 0.84120747211540381 2.5267972655613269e-07 -6.4746272466175988e-08 0.21875000000000000 0.015625000000000000 0.21874623680908112 0.015617173315149918 
0.23437500000000000 0.0000000000000000 0.0000000000000000 -4.3455328114345735e-06 -8.4243766760744388e-06 0.79170475278506502 2.3270658540035488e-07 0.0000000000000000 0.23437500000000000 0.0000000000000000 0.23437065446718855 -8.4243766760744388e-06 
0.23437500000000000 0.015625000000000000 0.0000000000000000 -3.9435762599194147e-06 -8.2488454839467207e-06 0.80280054343498841 2.3997814364884804e-07 -5.4766602685655961e-08 0.23437500000000000 0.015625000000000000 0.23437105642374009 0.015616751154516053 
0.25000000000000000 0.0000000000000000 0.0000000000000000 -4.5173155043160876e-06 -8.8374488828387011e-06 0.75591300524793448 2.2413856263359133e-07 0.0000000000000000 0.25000000000000000 0.0000000000000000 0.24999548268449567 -8.8374488828387011e-06 
0.25000000000000000 0.015625000000000000 0.0000000000000000 -4.1159094288434980e-06 -8.6696891629386366e-06 0.76619270523269911 2.2948170695944484e-07 -4.7285950665319202e-08 0.25000000000000000 0.015625000000000000 0.24999588409057116 0.015616330310837062 
0.26562500000000000 0.0000000000000000 0.0000000000000000 -4.6816191112726495e-06 -9.2498569184130445e-06 0.72143871630462142 2.1680824314128809e-07 0.0000000000000000 0.26562500000000000 0.0000000000000000 0.26562031838088873 -9.2498569184130445e-06 
0.26562500000000000 0.015625000000000000 0.0000000000000000 -4.2804993015373262e-06 -9.0896129839793365e-06 0.73108798520426443 2.2062038355612230e-07 -4.1788063036157693e-08 0.26562500000000000 0.015625000000000000 0.26562071950069849 0.015615910387016018 
0.28125000000000000 0.0000000000000000 0.0000000000000000 -4.8386259023188688e-06 -9.6618501936931023e-06 0.68810074355563045 2.1039616739402493e-07 0.0000000000000000 0.28125000000000000 0.0000000000000000 0.28124516137409766 -9.6618501936931023e-06 
0.28125000000000000 0.015625000000000000 0.0000000000000000 -4.4376095381035660e-06 -9.5088998231403115e-06 0.69726586890441167 2.1298218475742157e-07 -3.7877048700556226e-08 0.28125000000000000 0.015625000000000000 0.28124556239046189 0.015615491100176860 
0.29687500000000000 0.0000000000000000 0.0000000000000000 -4.9884999652080732e-06 -1.0073596524144998e-05 0.65576381634988312 2.0466643232578051e-07 0.0000000000000000 0.29687500000000000 0.0000000000000000 0.29687001150003478 -1.0073596524144998e-05 
0.29687500000000000 0.015625000000000000 0.0000000000000000 -4.5874699368438548e-06 -9.9277423469812512e-06 0.66456084567524498 2.0626371702353100e-07 -3.5244511413650011e-08 0.29687500000000000 0.015625000000000000 0.29687041253006313 0.015615072257653019 
0.31250000000000000 0.0000000000000000 0.0000000000000000 -5.1313923723866887e-06 -1.0485198236335347e-05 0.62432682980072096 1.9944201644205932e-07 0.0000000000000000 0.31250000000000000 0.0000000000000000 0.31249486860762760 -1.0485198236335347e-05 
0.31250000000000000 0.015625000000000000 0.0000000000000000 -4.7302849225273411e-06 -1.0346261277809515e-05 0.63284822880275793 2.0023796310979262e-07 -3.3646826586156191e-08 0.31250000000000000 0.015625000000000000 0.31249526971507752 0.015614653738722188 
0.32812500000000000 0.0000000000000000 0.0000000000000000 -5.2674450949591107e-06 -1.0896704747719726e-05 0.59371449866467707 1.9458831075793404e-07 0.0000000000000000 0.32812500000000000 0.0000000000000000 0.32811973255490506 -1.0896704747719726e-05 
0.32812500000000000 0.015625000000000000 0.0000000000000000 -4.8662399672839753e-06 -1.0764519528227337e-05 0.60203409519846529 1.9473273427746337e-07 -3.2889099838155955e-08 0.32812500000000000 0.015625000000000000 0.32812013376003274 0.015614235480471772 
0.34375000000000000 0.0000000000000000 0.0000000000000000 -5.3967939998836583e-06 -1.1308122533338310e-05 0.56387128809744846 1.9000183550478589e-07 0.0000000000000000 0.34375000000000000 0.0000000000000000 0.34374460320600014 -1.1308122533338310e-05 
0.34375000000000000 0.015625000000000000 0.0000000000000000 -4.9955064984895676e-06 -1.1182533308017236e-05 0.57204800273739920 1.8961591566683323e-07 -3.2813630488805296e-08 0.34375000000000000 0.015625000000000000 0.34374500449350154 0.015613817466691981 
0.35937500000000000 0.0000000000000000 0.0000000000000000 -5.5195711642403190e-06 -1.1719423125063130e-05 0.53475692440101119 1.8560232731935158e-07 0.0000000000000000 0.35937500000000000 0.0000000000000000 0.35936948042883571 -1.1719423125063130e-05 
0.35937500000000000 0.015625000000000000 0.0000000000000000 -5.1182456843737860e-06 -1.1600280972732964e-05 0.54283762554033699 1.8478514621745522e-07 -3.3291475369298271e-08 0.35937500000000000 0.015625000000000000 0.35936988175431561 0.015613399719027267 
0.37500000000000000 0.0000000000000000 0.0000000000000000 -5.6359066732401809e-06 -1.2130549607716491e-05 0.50634302568820921 1.8132707327393447e-07 0.0000000000000000 0.37500000000000000 0.0000000000000000 0.37499436409332682 -1.2130549607716491e-05 
0.37500000000000000 0.015625000000000000 0.0000000000000000 -5.2346113768499006e-06 -1.2017710161034354e-05 0.51436474203117133 1.8016046019440374e-07 -3.4216185175544167e-08 0.37500000000000000 0.015625000000000000 0.37499476538862314 0.015612982289838968 
0.39062500000000000 0.0000000000000000 0.0000000000000000 -5.7459300233831321e-06 -1.2541421951440472e-05 0.47861054163482808 1.7712677723538445e-07 0.0000000000000000 0.39062500000000000 0.0000000000000000 0.39061925406997661 -1.2541421951440472e-05 
0.39062500000000000 0.015625000000000000 0.0000000000000000 -5.3447524144202702e-06 -1.2434743616628772e-05 0.48660219550788275 1.7567894797673163e-07 -3.5499087663537431e-08 0.39062500000000000 0.015625000000000000 0.39061965524758557 0.015612565256383370 
0.40625000000000000 0.0000000000000000 0.0000000000000000 -5.8497712209326566e-06 -1.2951941432180988e-05 0.45154778789672090 1.7296249291319601e-07 0.0000000000000000 0.40625000000000000 0.0000000000000000 0.40624415022877908 -1.2951941432180988e-05 
0.40625000000000000 0.015625000000000000 0.0000000000000000 -5.4488144344752963e-06 -1.2851283985999296e-05 0.45953156596874584 1.7129081983953467e-07 -3.7065687855947114e-08 0.40625000000000000 0.015625000000000000 0.40624455118556552 0.015612148716014003 
0.42187500000000000 0.0000000000000000 0.0000000000000000 -5.9475616438529210e-06 -1.3361994329928427e-05 0.42514892444756192 1.6880331345960654e-07 0.0000000000000000 0.42187500000000000 0.0000000000000000 0.42186905243835615 -1.3361994329928427e-05 
0.42187500000000000 0.015625000000000000 0.0000000000000000 -5.5469413063984095e-06 -1.3267217809417378e-05 0.43314137026134264 1.6695646162063140e-07 -3.8852885049368412e-08 0.42187500000000000 0.015625000000000000 0.42186945305869367 0.015611732782190581 
0.43750000000000000 0.0000000000000000 0.0000000000000000 -6.0394347195238776e-06 -1.3771455049523374e-05 0.39941276999790470 1.6462460696103242e-07 0.0000000000000000 0.43750000000000000 0.0000000000000000 0.43749396056528039 -1.3771455049523374e-05 
0.43750000000000000 0.015625000000000000 0.0000000000000000 -5.6392762696886697e-06 -1.3682418870110860e-05 0.40742566022104820 1.6264420306215812e-07 -4.0806793794784752e-08 0.43750000000000000 0.015625000000000000 0.43749436072373032 0.015611317581129889 
0.45312500000000000 0.0000000000000000 0.0000000000000000 -6.1255264589697037e-06 -1.4180188776140388e-05 0.37434187408179537 1.6040665224480295e-07 0.0000000000000000 0.45312500000000000 0.0000000000000000 0.45311887447354104 -1.4180188776140388e-05 
0.45312500000000000 0.015625000000000000 0.0000000000000000 -5.7259628415313540e-06 -1.4096751028376637e-05 0.38238292442704375 1.5832860614778662e-07 -4.2881015923051792e-08 0.45312500000000000 0.015625000000000000 0.45311927403715840 0.015610903248971625 
0.46875000000000000 0.0000000000000000 0.0000000000000000 -6.2059758797223309e-06 -1.4588053753464795e-05 0.34994178889765393 1.5613357286936783e-07 0.0000000000000000 0.46875000000000000 0.0000000000000000 0.46874379402412031 -1.4588053753464795e-05 
0.46875000000000000 0.015625000000000000 0.0000000000000000 -5.8071455436689006e-06 -1.4510070639551324e-05 0.35801522418443804 1.5398913852067148e-07 -4.5035252315486183e-08 0.46875000000000000 0.015625000000000000 0.46874419285445640 0.015610489929360450 
0.48437500000000000 0.0000000000000000 0.0000000000000000 -6.2809253429316474e-06 -1.4994903254652259e-05 0.32622049746806403 1.5179249670833232e-07 0.0000000000000000 0.48437500000000000 0.0000000000000000 0.48436871907465706 -1.4994903254652259e-05 
0.48437500000000000 0.015625000000000000 0.0000000000000000 -5.8829704875363875e-06 -1.4922228634144056e-05 0.33432751193815213 1.4960913633622233e-07 -4.7234172474644884e-08 0.48437500000000000 0.015625000000000000 0.48436911702951241 0.015610077771365858 
0.50000000000000000 0.0000000000000000 0.0000000000000000 -6.3505208253344171e-06 -1.5400587302725548e-05 0.30318796502699835 1.4737288897286707e-07 0.0000000000000000 0.50000000000000000 0.0000000000000000 0.49999364947917463 -1.5400587302725548e-05 
0.50000000000000000 0.015625000000000000 0.0000000000000000 -5.9535858483805325e-06 -1.5333072323072329e-05 0.31132709286867727 1.4517498801975427e-07 -4.9446480877109002e-08 0.50000000000000000 0.015625000000000000 0.49999404641415163 0.015609666927676928 
0.51562500000000000 0.0000000000000000 0.0000000000000000 -6.4149121427910445e-06 -1.5804954186936288e-05 0.28085578799957195 1.4286602092579526e-07 0.0000000000000000 0.51562500000000000 0.0000000000000000 0.51561858508785718 -1.5804954186936288e-05 
0.51562500000000000 0.015625000000000000 0.0000000000000000 -6.0191422527464987e-06 -1.5742446979417545e-05 0.28902319944999838 1.4067548940566322e-07 -5.1644134155017245e-08 0.51562500000000000 0.015625000000000000 0.51561898085774727 0.015609257553020584 
0.53125000000000000 0.0000000000000000 0.0000000000000000 -6.4742531389970840e-06 -1.6207851813961627e-05 0.25923692034350382 1.3826454685244659e-07 0.0000000000000000 0.53125000000000000 0.0000000000000000 0.53124352574686096 -1.6207851813961627e-05 
0.53125000000000000 0.015625000000000000 0.0000000000000000 -6.0797930987728718e-06 -1.6150197239441345e-05 0.26742665529340698 1.3610133433065435e-07 -5.3801674146329292e-08 0.53125000000000000 0.015625000000000000 0.53124392020690125 0.015608849802760559 
0.54687500000000000 0.0000000000000000 0.0000000000000000 -6.5287018504617681e-06 -1.6609128927016303e-05 0.23834546094007003 1.3356216941072254e-07 0.0000000000000000 0.54687500000000000 0.0000000000000000 0.54686847129814953 -1.6609128927016303e-05 
0.54687500000000000 0.015625000000000000 0.0000000000000000 -6.1356948248070050e-06 -1.6556168359071034e-05 0.24654960935384321 1.3144471460746095e-07 -5.5895649899231859e-08 0.54687500000000000 0.015625000000000000 0.54686886430517523 0.015608443831640928 
0.56250000000000000 0.0000000000000000 0.0000000000000000 -6.5784206567583316e-06 -1.7008636221605978e-05 0.21819648853819648 1.2875337918783629e-07 0.0000000000000000 0.56250000000000000 0.0000000000000000 0.56249342157934323 -1.7008636221605978e-05 
0.56250000000000000 0.015625000000000000 0.0000000000000000 -6.1870071386673727e-06 -1.6960207357170348e-05 0.22640532501232305 1.2669901064334246e-07 -5.7904107668287500e-08 0.56250000000000000 0.015625000000000000 0.56249381299286139 0.015608039792642830 
0.57812500000000000 0.0000000000000000 0.0000000000000000 -6.6235764232696488e-06 -1.7406227383414796e-05 0.19880593273056449 1.2383325865952236e-07 0.0000000000000000 0.57812500000000000 0.0000000000000000 0.57811837642357677 -1.7406227383414796e-05 
0.57812500000000000 0.015625000000000000 0.0000000000000000 -6.2338932172303235e-06 -1.7362164073297250e-05 0.20700801099237820 1.2185855960178493e-07 -5.9806132433715229e-08 0.57812500000000000 0.015625000000000000 0.57811876610678281 0.015607637835926702 
0.59375000000000000 0.0000000000000000 0.0000000000000000 -6.6643406420791897e-06 -1.7801760071481717e-05 0.18019047074793493 1.1879734440684061e-07 0.0000000000000000 0.59375000000000000 0.0000000000000000 0.59374333565935788 -1.7801760071481717e-05 
0.59375000000000000 0.015625000000000000 0.0000000000000000 -6.2765198837485351e-06 -1.7761892165055278e-05 0.18837268273887364 1.1691849245640703e-07 -6.1581427799169909e-08 0.59375000000000000 0.015625000000000000 0.59374372348011628 0.015607238107834945 
0.60937500000000000 0.0000000000000000 0.0000000000000000 -6.7008895752102036e-06 -1.8195096868213325e-05 0.16236744060617622 1.1364154448612157e-07 0.0000000000000000 0.60937500000000000 0.0000000000000000 0.60936829911042478 -1.8195096868213325e-05 
0.60937500000000000 0.015625000000000000 0.0000000000000000 -6.3150577682903621e-06 -1.8159250068385341e-05 0.17051504392736150 1.1187463505126670e-07 -6.3209923759768801e-08 0.60937500000000000 0.015625000000000000 0.60936868494223173 0.015606840749931615 
0.62500000000000000 0.0000000000000000 0.0000000000000000 -6.7334044030208647e-06 -1.8586106216790712e-05 0.14535476138955319 1.0836211079598732e-07 0.0000000000000000 0.62500000000000000 0.0000000000000000 0.62499326659559695 -1.8586106216790712e-05 
0.62500000000000000 0.015625000000000000 0.0000000000000000 -6.3496814548174234e-06 -1.8554101943094044e-05 0.15345137826749236 1.0672347162676801e-07 -6.4671403877693584e-08 0.62500000000000000 0.015625000000000000 0.62499365031854515 0.015606445898056905 
0.64062500000000000 0.0000000000000000 0.0000000000000000 -6.7620713791466668e-06 -1.8974663366075468e-05 0.12917085122150793 1.0295566915254166e-07 0.0000000000000000 0.64062500000000000 0.0000000000000000 0.64061823792862083 -1.8974663366075468e-05 
0.64062500000000000 0.015625000000000000 0.0000000000000000 -6.3805696165965198e-06 -1.8946318625491057e-05 0.13719844175568119 1.0146217249428138e-07 -6.5945145151647851e-08 0.64062500000000000 0.015625000000000000 0.64061861943038345 0.015606053681374509 
0.65625000000000000 0.0000000000000000 0.0000000000000000 -6.7870819918662744e-06 -1.9360651343154702e-05 0.11383453273885515 9.7419312985309621e-08 0.0000000000000000 0.65625000000000000 0.0000000000000000 0.65624321291800813 -1.9360651343154702e-05 
0.65625000000000000 0.015625000000000000 0.0000000000000000 -6.4079051397795077e-06 -1.9335778610163669e-05 0.12177334502285801 9.6088690908490887e-08 -6.7009565488064328e-08 0.65625000000000000 0.015625000000000000 0.65624359209486027 0.015605664221389837 
0.67187500000000000 0.0000000000000000 0.0000000000000000 -6.8086331300629845e-06 -1.9743961974160805e-05 0.099364914588354600 9.1750770246681602e-08 0.0000000000000000 0.67187500000000000 0.0000000000000000 0.67186819136686993 -1.9743961974160805e-05 
0.67187500000000000 0.015625000000000000 0.0000000000000000 -6.4318752329865081e-06 -1.9722369083635462e-05 0.10719341437712876 9.0601937908396278e-08 -6.7841875390313936e-08 0.67187500000000000 0.015625000000000000 0.67186856812476703 0.015605277630916363 
0.68750000000000000 0.0000000000000000 0.0000000000000000 -6.8269272499504632e-06 -2.0124496974949084e-05 0.085781235502138828 8.5948657675546042e-08 0.0000000000000000 0.68750000000000000 0.0000000000000000 0.68749317307275015 -2.0124496974949084e-05 
0.68750000000000000 0.015625000000000000 0.0000000000000000 -6.4526715184883690e-06 -2.0105987033947845e-05 0.093476018488247992 8.5002048267816450e-08 -6.8417732566833619e-08 0.68750000000000000 0.015625000000000000 0.68749354732848156 0.015604894012966053 
0.70312500000000000 0.0000000000000000 0.0000000000000000 -6.8421725362852678e-06 -2.0502169134621969e-05 0.073102654728844127 8.0012842268541485e-08 0.0000000000000000 0.70312500000000000 0.0000000000000000 0.70311815782746356 -2.0502169134621969e-05 
0.70312500000000000 0.015625000000000000 0.0000000000000000 -6.4704900979822407e-06 -2.0486540462100187e-05 0.080638345289391331 7.9290756011120239e-08 -6.8710901001922484e-08 0.70312500000000000 0.015625000000000000 0.70311852950990206 0.015604513459537899 
0.71875000000000000 0.0000000000000000 0.0000000000000000 -6.8545830487079450e-06 -2.0876903616770146e-05 0.061347968789044471 7.3944937341288872e-08 0.0000000000000000 0.71875000000000000 0.0000000000000000 0.71874314541695128 -2.0876903616770146e-05 
0.71875000000000000 0.015625000000000000 0.0000000000000000 -6.4855315828430388e-06 -2.0863949723843765e-05 0.068697110432513933 7.3471904481559241e-08 -6.8692920191695076e-08 0.71875000000000000 0.015625000000000000 0.71874351446841711 0.015604136050276158 
0.73437500000000000 0.0000000000000000 0.0000000000000000 -6.8643788398740057e-06 -2.1248639405681546e-05 0.050535229411624631 6.7748970291297692e-08 0.0000000000000000 0.73437500000000000 0.0000000000000000 0.73436813562116010 -2.1248639405681546e-05 
0.73437500000000000 0.015625000000000000 0.0000000000000000 -6.4980010749345990e-06 -2.1238149033620452e-05 0.057668174336200195 6.7552124075566094e-08 -6.8332796656926151e-08 0.73437500000000000 0.015625000000000000 0.73436850199892512 0.015603761850966380 
0.75000000000000000 0.0000000000000000 0.0000000000000000 -6.8717860267815369e-06 -2.1617330927665286e-05 0.040681230756861440 6.1432272064302451e-08 0.0000000000000000 0.75000000000000000 0.0000000000000000 0.74999312821397324 -2.1617330927665286e-05 
0.75000000000000000 0.015625000000000000 0.0000000000000000 -6.5081080793568251e-06 -2.1609088166553095e-05 0.047566039301977225 6.1541720522992764e-08 -6.7596739797336478e-08 0.75000000000000000 0.015625000000000000 0.74999349189192077 0.015603390911833449 
0.76562500000000000 0.0000000000000000 0.0000000000000000 -6.8770367896349095e-06 -2.1982949881042438e-05 0.031800825272837278 5.5006655017236125e-08 0.0000000000000000 0.76562500000000000 0.0000000000000000 0.76561812296321052 -2.1982949881042438e-05 
0.76562500000000000 0.015625000000000000 0.0000000000000000 -6.5160663246198244e-06 -2.1976734399407706e-05 0.038403191159142952 5.5455827973716616e-08 -6.6447979932504372e-08 0.76562500000000000 0.015625000000000000 0.76561848393367538 0.015603023265600592 
0.78125000000000000 0.0000000000000000 0.0000000000000000 -6.8803692629146134e-06 -2.2345487312193040e-05 0.023906016458919918 4.8489966352932155e-08 0.0000000000000000 0.78125000000000000 0.0000000000000000 0.78124311963073712 -2.2345487312193040e-05 
0.78125000000000000 0.015625000000000000 0.0000000000000000 -6.5220934583481775e-06 -2.2341074737384323e-05 0.030189241383144022 4.9315892555150372e-08 -6.4846731079415733e-08 0.78125000000000000 0.015625000000000000 0.78124347790654169 0.015602658925262613 
0.79687500000000000 0.0000000000000000 0.0000000000000000 -6.8820272698782258e-06 -2.2704955979093827e-05 0.017004763423710680 4.1908130426503703e-08 0.0000000000000000 0.79687500000000000 0.0000000000000000 0.79686811797273016 -2.2704955979093827e-05 
0.79687500000000000 0.015625000000000000 0.0000000000000000 -6.5264105773502850e-06 -2.2702118480340567e-05 0.022929815970139891 4.3151561294578012e-08 -6.2750400642885180e-08 0.79687500000000000 0.015625000000000000 0.79686847358942270 0.015602297881519659 
0.81250000000000000 0.0000000000000000 0.0000000000000000 -6.8822598327235196e-06 -2.3061393047483881e-05 0.011099417156930870 3.5297811726548941e-08 0.0000000000000000 0.81250000000000000 0.0000000000000000 0.81249311774016730 -2.3061393047483881e-05 
0.81250000000000000 0.015625000000000000 0.0000000000000000 -6.5292415393149752e-06 -2.3059900189173529e-05 0.016625127762501621 3.7003046219550138e-08 -6.0114207954780992e-08 0.81250000000000000 0.015625000000000000 0.81249347075846068 0.015601940099810826 
0.82812500000000000 0.0000000000000000 0.0000000000000000 -6.8813203634015020e-06 -2.3414863166937455e-05 0.0061846946701286975 2.8709872747603342e-08 0.0000000000000000 0.82812500000000000 0.0000000000000000 0.82811811867963658 -2.3414863166937455e-05 
0.82812500000000000 0.015625000000000000 0.0000000000000000 -6.5308119890768602e-06 -2.3414483119450024e-05 0.011268162693741547 3.0924014987107617e-08 -5.6892476475884349e-08 0.82812500000000000 0.015625000000000000 0.82811846918801091 0.015601585516880552 
0.84375000000000000 0.0000000000000000 0.0000000000000000 -6.8794654003752176e-06 -2.3765461972028161e-05 0.0022450901888689517 2.2213691331382440e-08 0.0000000000000000 0.84375000000000000 0.0000000000000000 0.84374312053459966 -2.3765461972028161e-05 
0.84375000000000000 0.015625000000000000 0.0000000000000000 -6.5313480148524730e-06 -2.3765963192370694e-05 0.0068424141160087978 2.4984925432330885e-08 -5.3040987954682302e-08 0.84375000000000000 0.015625000000000000 0.84374346865198502 0.015601234036807630 
0.85937500000000000 0.0000000000000000 0.0000000000000000 -6.8769526980745987e-06 -2.4113320041929970e-05 -0.00074836208755521365 1.5902691868482096e-08 0.0000000000000000 0.85937500000000000 0.0000000000000000 0.85936812304730192 -2.4113320041929970e-05 
0.85937500000000000 0.015625000000000000 0.0000000000000000 -6.5310743286260210e-06 -2.4114473567269163e-05 0.0033191284525920539 1.9276685786549256e-08 -4.8521116500178281e-08 0.85937500000000000 0.015625000000000000 0.85936846892567142 0.015600885526432731 
0.87500000000000000 0.0000000000000000 0.0000000000000000 -6.8740383880689295e-06 -2.4458607317879572e-05 -0.0028420053211513671 9.8998969959644947e-09 0.0000000000000000 0.87500000000000000 0.0000000000000000 0.87499312596161205 -2.4458607317879572e-05 
0.87500000000000000 0.015625000000000000 0.0000000000000000 -6.5302118389173703e-06 -2.4460189853247126e-05 0.00065410016958308489 1.3913435505552063e-08 -4.3306446547745112e-08 0.87500000000000000 0.015625000000000000 0.87499346978816106 0.015600539810146754 
0.89062500000000000 0.0000000000000000 0.0000000000000000 -6.8709727993684840e-06 -2.4801537898013534e-05 -0.0041040308679553810 4.3665469389974182e-09 0.0000000000000000 0.89062500000000000 0.0000000000000000 0.89061812902720072 -2.4801537898013534e-05 
0.89062500000000000 0.015625000000000000 0.0000000000000000 -6.5289744518391829e-06 -2.4803335927407456e-05 -0.0012157634767893017 9.0349130477558118e-09 -3.7394521348408746e-08 0.89062500000000000 0.015625000000000000 0.89061847102554814 0.015600196664072591 
0.90625000000000000 0.0000000000000000 0.0000000000000000 -6.8679943238446350e-06 -2.5142374943827411e-05 -0.0046291477962616383 -4.9953684059402776e-10 0.0000000000000000 0.90625000000000000 0.0000000000000000 0.90624313200567619 -2.5142374943827411e-05 