# For a description of the Tecplot format see the Tecplot User's guide.
#
Variables=x,y,z,s_u,s_v,s_p,x,y,ref_u,ref_v,u,v
Zone f=fepoint, n=4225, e=8192, et=quadrilateral, c=black
0.00000 0.00000 0.00000 0.0000000000000000 0.0000000000000000 3.3963119582232775 0.0000000000000000 0.0000000000000000 0.0000000000000000 0.0000000000000000 0.0000000000000000 0.0000000000000000 
0.015625000000000000 0.0000000000000000 0.0000000000000000 -6.9579176614582060e-07 -1.5107503075050943e-06 2.8435986661882251 7.1011277283704137e-06 0.0000000000000000 0.015625000000000000 0.0000000000000000 0.015624304208233854 -1.5107503075050943e-06 
0.015625000000000000 0.015625000000000000 0.0000000000000000 -1.7954260744228875e-07 -9.7202176231810781e-07 2.9474019298412437 4.7450106291329603e-06 1.5709169970261208e-06 0.015625000000000000 0.015625000000000000 0.015624820457392557 0.015624027978237682 
0.0000000000000000 0.015625000000000000 0.0000000000000000 0.0000000000000000 0.0000000000000000 3.1369467332907583 0.0000000000000000 4.1766435334561842e-06 0.0000000000000000 0.015625000000000000 0.0000000000000000 0.015625000000000000 
0.031250000000000000 0.0000000000000000 0.0000000000000000 -1.1474770108121221e-06 -2.3374853512682896e-06 2.2311468933411631 3.6514149856675470e-06 0.0000000000000000 0.031250000000000000 0.0000000000000000 0.031248852522989187 -2.3374853512682896e-06 
0.031250000000000000 0.015625000000000000 0.0000000000000000 -6.1841698753049057e-07 -1.9005099566223631e-06 2.3787778125571015 2.7649657780662663e-06 -9.9758862885738816e-07 0.031250000000000000 0.015625000000000000 0.031249381583012468 0.015623099490043377 
0.046875000000000000 0.0000000000000000 0.0000000000000000 -1.5138687482686788e-06 -2.9835302582258581e-06 1.8323307982249080 1.9955057179178670e-06 0.0000000000000000 0.046875000000000000 0.0000000000000000 0.046873486131251731 -2.9835302582258581e-06 
0.046875000000000000 0.015625000000000000 0.0000000000000000 -1.0049339775793633e-06 -2.6124574457275811e-06 1.9517309355834975 2.1287757020573479e-06 -6.7937538864975472e-07 0.046875000000000000 0.015625000000000000 0.046873995066022418 0.015622387542554272 
0.062500000000000000 0.0000000000000000 0.0000000000000000 -1.8358299098679018e-06 -3.5473087551690991e-06 1.5839673206583551 1.2786006539393547e-06 0.0000000000000000 0.062500000000000000 0.0000000000000000 0.062498164170090131 -3.5473087551690991e-06 
0.062500000000000000 0.015625000000000000 0.0000000000000000 -1.3502648610935708e-06 -3.2185396003804498e-06 1.6703637367794466 1.4320050123496922e-06 -6.0439199725462495e-07 0.062500000000000000 0.015625000000000000 0.062498649735138904 0.015621781460399621 
0.078125000000000000 0.0000000000000000 0.0000000000000000 -2.1297998756697066e-06 -4.0632822674825672e-06 1.4172964066186129 8.7486000796168951e-07 0.0000000000000000 0.078125000000000000 0.0000000000000000 0.078122870200124331 -4.0632822674825672e-06 
0.078125000000000000 0.015625000000000000 0.0000000000000000 -1.6647554046673700e-06 -3.7639440043514975e-06 1.4798777204367097 1.0034486563879319e-06 -4.4018617176490337e-07 0.078125000000000000 0.015625000000000000 0.078123335244595346 0.015621236055995649 
0.093750000000000000 0.0000000000000000 0.0000000000000000 -2.4037196750400370e-06 -4.5484268570707449e-06 1.2974302714878581 6.4524938842135282e-07 0.0000000000000000 0.093750000000000000 0.0000000000000000 0.093747596280324960 -4.5484268570707449e-06 
0.093750000000000000 0.015625000000000000 0.0000000000000000 -1.9551926152813072e-06 -4.2711058766529720e-06 1.3439155887517982 7.4549335138205158e-07 -3.3046644279143755e-07 0.093750000000000000 0.015625000000000000 0.093748044807384731 0.015620728894123347 
0.10937500000000000 0.0000000000000000 0.0000000000000000 -2.6618867683230200e-06 -5.0124852898520035e-06 1.2055380877550743 5.0837831594532231e-07 0.0000000000000000 0.10937500000000000 0.0000000000000000 0.10937233811323167 -5.0124852898520035e-06 
0.10937500000000000 0.015625000000000000 0.0000000000000000 -2.2261781082196087e-06 -4.7526587251134020e-06 1.2410522336765260 5.8380388709819943e-07 -2.4714857852316780e-07 0.10937500000000000 0.015625000000000000 0.10937277382189180 0.015620247341274887 
0.12500000000000000 0.0000000000000000 0.0000000000000000 -2.9068623140526663e-06 -5.4616318340636423e-06 1.1311413500616292 4.2207633545070911e-07 0.0000000000000000 0.12500000000000000 0.0000000000000000 0.12499709313768596 -5.4616318340636423e-06 
0.12500000000000000 0.015625000000000000 0.0000000000000000 -2.4809162072802115e-06 -5.2163938145174308e-06 1.1589980833674016 4.7822803977011706e-07 -1.8588645584913974e-07 0.12500000000000000 0.015625000000000000 0.12499751908379274 0.015619783606185484 
0.14062500000000000 0.0000000000000000 0.0000000000000000 -3.1402878266595739e-06 -5.9000276187956293e-06 1.0682155184563069 3.6485892686269641e-07 0.0000000000000000 0.14062500000000000 0.0000000000000000 0.14062185971217334 -5.9000276187956293e-06 
0.14062500000000000 0.015625000000000000 0.0000000000000000 -2.7216848974623693e-06 -5.6674213141608822e-06 1.0905923020470130 4.0680476613919445e-07 -1.4022458957385510e-07 0.14062500000000000 0.015625000000000000 0.14062227831510254 0.015619332578685837 
0.15625000000000000 0.0000000000000000 0.0000000000000000 -3.3632795891356638e-06 -6.3305955149867540e-06 1.0131491051770027 3.2518150245327650e-07 0.0000000000000000 0.15625000000000000 0.0000000000000000 0.15624663672041086 -6.3305955149867540e-06 
0.15625000000000000 0.015625000000000000 0.0000000000000000 -2.9501388645356237e-06 -6.1092480753438309e-06 1.0315142823685342 3.5665822297103410e-07 -1.0585436430348537e-07 0.15625000000000000 0.015625000000000000 0.15624704986113547 0.015618890751924656 
0.17187500000000000 0.0000000000000000 0.0000000000000000 -3.5766340803336659e-06 -6.7554467329524211e-06 0.96368479617872094 2.9654860376773913e-07 0.0000000000000000 0.17187500000000000 0.0000000000000000 0.17187142336591968 -6.7554467329524211e-06 
0.17187500000000000 0.015625000000000000 0.0000000000000000 -3.1675047292283413e-06 -6.5443600927465596e-06 0.97905859775533621 3.2025634772171762e-07 -7.9771774581538896e-08 0.17187500000000000 0.015625000000000000 0.17187183249527080 0.015618455639907254 
0.18750000000000000 0.0000000000000000 0.0000000000000000 -3.7809426124659847e-06 -7.1761350411305838e-06 0.91835501735774872 2.7515704420073861e-07 0.0000000000000000 0.18750000000000000 0.0000000000000000 0.18749621905738753 -7.1761350411305838e-06 
0.18750000000000000 0.015625000000000000 0.0000000000000000 -3.3747101669586040e-06 -6.9745606572482535e-06 0.93146699301945179 2.9303340523998157e-07 -5.9885370656538482e-08 0.18750000000000000 0.015625000000000000 0.18749662528983305 0.015618025439342752 
0.20312500000000000 0.0000000000000000 0.0000000000000000 -3.9766592785298050e-06 -7.5938172384891591e-06 0.87617163880067783 2.5868100273771166e-07 0.0000000000000000 0.20312500000000000 0.0000000000000000 0.20312102334072146 -7.5938172384891591e-06 
0.20312500000000000 0.015625000000000000 0.0000000000000000 -3.5724708497465733e-06 -7.4011778968387191e-06 0.88755691940204395 2.7212057606856345e-07 -4.4715218595352146e-08 0.20312500000000000 0.015625000000000000 0.20312142752915022 0.015617598822103161 
0.21875000000000000 0.0000000000000000 0.0000000000000000 -4.1641433997259632e-06 -8.0093591809533606e-06 0.83644927780619283 2.4563808861874769e-07 0.0000000000000000 0.21875000000000000 0.0000000000000000 0.21874583585660026 -8.0093591809533606e-06 
0.21875000000000000 0.015625000000000000 0.0000000000000000 -3.7613499800787414e-06 -7.8251983054509588e-06 0.84650899701511328 2.5565549645521734e-07 -3.3192393948107317e-08 0.21875000000000000 0.015625000000000000 0.21874623865001988 0.015617174801694550 
0.23437500000000000 0.0000000000000000 0.0000000000000000 -4.3436872704091307e-06 -8.4234084369078747e-06 0.79870088632510938 2.3504749786667249e-07 0.0000000000000000 0.23437500000000000 0.0000000000000000 0.23437065631272960 -8.4234084369078747e-06 
0.23437500000000000 0.015625000000000000 0.0000000000000000 -3.9417997309897518e-06 -8.2473560999042256e-06 0.80774121428496803 2.4239080935622205e-07 -2.4529483491401316e-08 0.23437500000000000 0.015625000000000000 0.23437105820026902 0.015616752643900096 
0.25000000000000000 0.0000000000000000 0.0000000000000000 -4.5155350017610629e-06 -8.8364456065654337e-06 0.76257371490073089 2.2623845039712018e-07 0.0000000000000000 0.25000000000000000 0.0000000000000000 0.24999548446499822 -8.8364456065654337e-06 
0.25000000000000000 0.015625000000000000 0.0000000000000000 -4.1141905567613721e-06 -8.6681950561442075e-06 0.77083181960653802 2.3146727130682114e-07 -1.8135418349010080e-08 0.25000000000000000 0.015625000000000000 0.24999588580944324 0.015616331804943857 
0.26562500000000000 0.0000000000000000 0.0000000000000000 -4.6798957347909152e-06 -9.2488215170385801e-06 0.72780861798555707 2.1873894966946293e-07 0.0000000000000000 0.26562500000000000 0.0000000000000000 0.26562032010426523 -9.2488215170385801e-06 
0.26562500000000000 0.015625000000000000 0.0000000000000000 -4.2788322478833294e-06 -9.0881125499467236e-06 0.73547041382373013 2.2227817832660109e-07 -1.3558848472248614e-08 0.26562500000000000 0.015625000000000000 0.26562072116775209 0.015615911887450054 
0.28125000000000000 0.0000000000000000 0.0000000000000000 -4.8369531506793307e-06 -9.6607847906679329e-06 0.69421332824621584 2.1220879520776934e-07 0.0000000000000000 0.28125000000000000 0.0000000000000000 0.28124516304684932 -9.6607847906679329e-06 
0.28125000000000000 0.015625000000000000 0.0000000000000000 -4.4359892804748683e-06 -9.5073917162813689e-06 0.70142591749976846 2.1438581983535623e-07 -1.0449715354028903e-08 0.28125000000000000 0.015625000000000000 0.28124556401071960 0.015615492608283718 
0.29687500000000000 0.0000000000000000 0.0000000000000000 -4.9868724626347046e-06 -1.0072502685283945e-05 0.66164437686029787 2.0639780914713536e-07 0.0000000000000000 0.29687500000000000 0.0000000000000000 0.29687001312753736 -1.0072502685283945e-05 
0.29687500000000000 0.015625000000000000 0.0000000000000000 -4.5858921619531503e-06 -9.9262254514814121e-06 0.66852496869356870 2.0746848321082803e-07 -8.5326656759626380e-09 0.29687500000000000 0.015625000000000000 0.29687041410783804 0.015615073774548517 
0.31250000000000000 0.0000000000000000 0.0000000000000000 -5.1298056442392776e-06 -1.0484077127626771e-05 0.62999453754773393 2.0111892685202757e-07 0.0000000000000000 0.31250000000000000 0.0000000000000000 0.31249487019435573 -1.0484077127626771e-05 
0.31250000000000000 0.015625000000000000 0.0000000000000000 -4.7287459244684942e-06 -1.0344734675987855e-05 0.63663697032174316 2.0128590818066819e-07 -7.5883131045868310e-09 0.31250000000000000 0.015625000000000000 0.31249527125407556 0.015614655265324013 
0.32812500000000000 0.0000000000000000 0.0000000000000000 -5.2658953920842079e-06 -1.0895557244559081e-05 0.59918390405036825 1.9623034061629098e-07 0.0000000000000000 0.32812500000000000 0.0000000000000000 0.32811973410460793 -1.0895557244559081e-05 
0.32812500000000000 0.015625000000000000 0.0000000000000000 -4.8647365564597316e-06 -1.0762982470039603e-05 0.60566349993362389 1.9565619546001389e-07 -7.4398018223827311e-09 0.32812500000000000 0.015625000000000000 0.32812013526344352 0.015614237017529958 
0.34375000000000000 0.0000000000000000 0.0000000000000000 -5.3952781609042723e-06 -1.1306949297197743e-05 0.56915342169568273 1.9162333000076281e-07 0.0000000000000000 0.34375000000000000 0.0000000000000000 0.34374460472183910 -1.1306949297197743e-05 
0.34375000000000000 0.015625000000000000 0.0000000000000000 -4.9940359226863606e-06 -1.1180985183499082e-05 0.57553065706426210 1.9044001433164471e-07 -7.9430181924911633e-09 0.34375000000000000 0.015625000000000000 0.34374500596407737 0.015613819014816501 
0.35937500000000000 0.0000000000000000 0.0000000000000000 -5.5180865071814379e-06 -1.1718224658126133e-05 0.53986011638570630 1.8721376734062167e-07 0.0000000000000000 0.35937500000000000 0.0000000000000000 0.35936948191349288 -1.1718224658126133e-05 
0.35937500000000000 0.015625000000000000 0.0000000000000000 -5.1168055615722792e-06 -1.1598721288086937e-05 0.54618343579381412 1.8552957470296478e-07 -8.9793552478174248e-09 0.35937500000000000 0.015625000000000000 0.35936988319443847 0.015613401278711914 
0.37500000000000000 0.0000000000000000 0.0000000000000000 -5.6344509097733611e-06 -1.2129326292460970e-05 0.51127352299473972 1.8293606063662684e-07 0.0000000000000000 0.37500000000000000 0.0000000000000000 0.37499436554909021 -1.2129326292460970e-05 
0.37500000000000000 0.015625000000000000 0.0000000000000000 -5.2331996385628482e-06 -1.2016138518457260e-05 0.51758152335100782 1.8084077877749404e-07 -1.0450291025757070e-08 0.37500000000000000 0.015625000000000000 0.37499476680036142 0.015612983861481545 
0.39062500000000000 0.0000000000000000 0.0000000000000000 -5.7445011905166961e-06 -1.2540174079843538e-05 0.48337297771700599 1.7873875104430890e-07 0.0000000000000000 0.39062500000000000 0.0000000000000000 0.39061925549880949 -1.2540174079843538e-05 
0.39062500000000000 0.015625000000000000 0.0000000000000000 -5.3433672581059545e-06 -1.2433159697663821e-05 0.48969612215345593 1.7630753805024140e-07 -1.2273273494155623e-08 0.39062500000000000 0.015625000000000000 0.39061965663274195 0.015612566840302336 
0.40625000000000000 0.0000000000000000 0.0000000000000000 -5.8483676261870324e-06 -1.2950669227700920e-05 0.45614554361990195 1.7458125737427119e-07 0.0000000000000000 0.40625000000000000 0.0000000000000000 0.40624415163237382 -1.2950669227700920e-05 
0.40625000000000000 0.015625000000000000 0.0000000000000000 -5.4474542835954873e-06 -1.2849687538056195e-05 0.46250751907096577 1.7187759253046068e-07 -1.4378558344041952e-08 0.40625000000000000 0.015625000000000000 0.40624455254571640 0.015612150312461942 
0.42187500000000000 0.0000000000000000 0.0000000000000000 -5.9461818208936507e-06 -1.3360697964413071e-05 0.42958440763647898 1.7043143099750485e-07 0.0000000000000000 0.42187500000000000 0.0000000000000000 0.42186905381817913 -1.3360697964413071e-05 
0.42187500000000000 0.015625000000000000 0.0000000000000000 -5.5456047768238076e-06 -1.3265608635057855e-05 0.43600320879836491 1.6750939018289978e-07 -1.6706749371469894e-08 0.42187500000000000 0.015625000000000000 0.42186945439522322 0.015611734391364943 
0.43750000000000000 0.0000000000000000 0.0000000000000000 -6.0380773919342474e-06 -1.3770134656521121e-05 0.40368763358848292 1.6626369340653514e-07 0.0000000000000000 0.43750000000000000 0.0000000000000000 0.43749396192260809 -1.3770134656521121e-05 
0.43750000000000000 0.015625000000000000 0.0000000000000000 -5.6379621413259220e-06 -1.3680796818701904e-05 0.41017643396482456 1.6316972671790159e-07 -1.9206862001402104e-08 0.43750000000000000 0.015625000000000000 0.43749436203785869 0.015611319203181298 
0.45312500000000000 0.0000000000000000 0.0000000000000000 -6.1241905103813591e-06 -1.4178844461635415e-05 0.37845718755072810 1.6205759956168386e-07 0.0000000000000000 0.45312500000000000 0.0000000000000000 0.45311887580948956 -1.4178844461635415e-05 
0.45312500000000000 0.015625000000000000 0.0000000000000000 -5.7246700342170259e-06 -1.4095115989742464e-05 0.38502504267108989 1.5883193902570556e-07 -2.1834779694962636e-08 0.45312500000000000 0.015625000000000000 0.45311927532996582 0.015610904884010257 
0.46875000000000000 0.0000000000000000 0.0000000000000000 -6.2046603289269176e-06 -1.4586685604749032e-05 0.35389817391857631 1.5779671729472302e-07 0.0000000000000000 0.46875000000000000 0.0000000000000000 0.46874379533967109 -1.4586685604749032e-05 
0.46875000000000000 0.015625000000000000 0.0000000000000000 -5.8058730965311765e-06 -1.4508422539293643e-05 0.36055059055799205 1.5447450771957812e-07 -2.4552007575194765e-08 0.46875000000000000 0.015625000000000000 0.46874419412690349 0.015610491577460707 
0.48437500000000000 0.0000000000000000 0.0000000000000000 -6.2796293229017117e-06 -1.4993511347834117e-05 0.33001823608427377 1.5346774494815212e-07 0.0000000000000000 0.48437500000000000 0.0000000000000000 0.48436872037067707 -1.4993511347834117e-05 
0.48437500000000000 0.015625000000000000 0.0000000000000000 -5.8817175411589643e-06 -1.4920567430340326e-05 0.33675763309528656 1.5007996644248936e-07 -2.7324652242257987e-08 0.48437500000000000 0.015625000000000000 0.48436911828245882 0.015610079432569660 
0.50000000000000000 0.0000000000000000 0.0000000000000000 -6.3492435653120288e-06 -1.5399171709228571e-05 0.30682708671615561 1.4905981145790219e-07 0.0000000000000000 0.50000000000000000 0.0000000000000000 0.49999365075643470 -1.5399171709228571e-05 
0.50000000000000000 0.015625000000000000 0.0000000000000000 -5.9523516292146243e-06 -1.5331398004099292e-05 0.31365316701768997 1.4563404468558769e-07 -3.0122574456585018e-08 0.50000000000000000 0.015625000000000000 0.49999404764837080 0.015609668601995903 
0.51562500000000000 0.0000000000000000 0.0000000000000000 -6.4136529527760987e-06 -1.5803514979238101e-05 0.28433614061869900 1.4456391851641758e-07 0.0000000000000000 0.51562500000000000 0.0000000000000000 0.51561858634704727 -1.5803514979238101e-05 
0.51562500000000000 0.015625000000000000 0.0000000000000000 -6.0179260593076163e-06 -1.5740759562680708e-05 0.29124618935739355 1.4112499124027120e-07 -3.2918674223628511e-08 0.51562500000000000 0.015625000000000000 0.51561898207394075 0.015609259240437321 
0.53125000000000000 0.0000000000000000 0.0000000000000000 -6.4730113960979746e-06 -1.6206389070750905e-05 0.26255822893570419 1.3997249549171178e-07 0.0000000000000000 0.53125000000000000 0.0000000000000000 0.53124352698860389 -1.6206389070750905e-05 
0.53125000000000000 0.015625000000000000 0.0000000000000000 -6.0785942892314624e-06 -1.6148496770818551e-05 0.26954734942026487 1.3654303993191842e-07 -3.5688277223414443e-08 0.53125000000000000 0.015625000000000000 0.53124392140571075 0.015608851503229182 
0.54687500000000000 0.0000000000000000 0.0000000000000000 -6.5274769866688307e-06 -1.6607642737893015e-05 0.24150737765536712 1.3527904581456724e-07 0.0000000000000000 0.54687500000000000 0.0000000000000000 0.54686847252301329 -1.6607642737893015e-05 
0.54687500000000000 0.015625000000000000 0.0000000000000000 -6.1345128056389390e-06 -1.6554454912900563e-05 0.24856867406465147 1.3187998979240462e-07 -3.8408598451481029e-08 0.54687500000000000 0.015625000000000000 0.54686886548719438 0.015608445545087099 
0.56250000000000000 0.0000000000000000 0.0000000000000000 -6.5772121477730612e-06 -1.7007126691411395e-05 0.22119863639964565 1.3047786954252737e-07 0.0000000000000000 0.56250000000000000 0.0000000000000000 0.56249342278785219 -1.7007126691411395e-05 
0.56250000000000000 0.015625000000000000 0.0000000000000000 -6.1858413540736199e-06 -1.6958481036630097e-05 0.22832335026969111 1.2712887965092156e-07 -4.1058264074209007e-08 0.56250000000000000 0.015625000000000000 0.56249381415864608 0.015608041518963370 
0.57812500000000000 0.0000000000000000 0.0000000000000000 -6.6223837780751375e-06 -1.7404694636247528e-05 0.20164794561482050 1.2556385143954836e-07 0.0000000000000000 0.57812500000000000 0.0000000000000000 0.57811837761622198 -1.7404694636247528e-05 
0.57812500000000000 0.015625000000000000 0.0000000000000000 -6.2327431390673556e-06 -1.7360425011031692e-05 0.20882555156816704 1.2228374305824482e-07 -4.3616876319820966e-08 0.57812500000000000 0.015625000000000000 0.57811876725686095 0.015607639574988967 
0.59375000000000000 0.0000000000000000 0.0000000000000000 -6.6631633929738704e-06 -1.7800204254430619e-05 0.18287203171203648 1.2053230764461691e-07 0.0000000000000000 0.59375000000000000 0.0000000000000000 0.59374333683660707 -1.7800204254430619e-05 
0.59375000000000000 0.015625000000000000 0.0000000000000000 -6.2753850017333715e-06 -1.7760140523910802e-05 0.19009029669901092 1.1733943418686477e-07 -4.6064609083765246e-08 0.59375000000000000 0.015625000000000000 0.59374372461499825 0.015607239859476091 
0.60937500000000000 0.0000000000000000 0.0000000000000000 -6.6997272680506566e-06 -1.8193518154815129e-05 0.16488832055709959 1.1537888717146389e-07 0.0000000000000000 0.60937500000000000 0.0000000000000000 0.60936830027273192 -1.8193518154815129e-05 
0.60937500000000000 0.015625000000000000 0.0000000000000000 -6.3139375802583935e-06 -1.8157486042111255e-05 0.17213332995908745 1.1229151927432586e-07 -4.8381824093589219e-08 0.60937500000000000 0.015625000000000000 0.60936868606241978 0.015606842513957888 
0.62500000000000000 0.0000000000000000 0.0000000000000000 -6.7322565874317506e-06 -1.8584504810196256e-05 0.14771486004403578 1.1009952740690514e-07 0.0000000000000000 0.62500000000000000 0.0000000000000000 0.62499326774341257 -1.8584504810196256e-05 
0.62500000000000000 0.015625000000000000 0.0000000000000000 -6.3485754568181936e-06 -1.8552325756855943e-05 0.15497101329574939 1.0713623167574686e-07 -5.0548699148091189e-08 0.62500000000000000 0.015625000000000000 0.62499365142454322 0.015606447674243145 
0.64062500000000000 0.0000000000000000 0.0000000000000000 -6.7609375984585999e-06 -1.8973039501881491e-05 0.13137024233061384 1.0469046568337460e-07 0.0000000000000000 0.64062500000000000 0.0000000000000000 0.64061823906240156 -1.8973039501881491e-05 
0.64062500000000000 0.015625000000000000 0.0000000000000000 -6.3794772926135202e-06 -1.8944530536022602e-05 0.13862022022569773 1.0187049193280227e-07 -5.2544861282047695e-08 0.64062500000000000 0.015625000000000000 0.64061862052270735 0.015606055469463977 
0.65625000000000000 0.0000000000000000 0.0000000000000000 -6.7859617725361250e-06 -1.9359005291825184e-05 0.11587351564731800 9.9148312123452606e-08 0.0000000000000000 0.65625000000000000 0.0000000000000000 0.65624321403822750 -1.9359005291825184e-05 
0.65625000000000000 0.015625000000000000 0.0000000000000000 -6.4068259508560036e-06 -1.9333978905351177e-05 0.12309822119570836 9.6491997761228791e-08 -5.4349018923326990e-08 0.65625000000000000 0.015625000000000000 0.65624359317404923 0.015605666021094649 
0.67187500000000000 0.0000000000000000 0.0000000000000000 -6.8075259703162749e-06 -1.9742294042919287e-05 0.10124407435758172 9.3470192625753383e-08 0.0000000000000000 0.67187500000000000 0.0000000000000000 0.67186819247402985 -1.9742294042919287e-05 
0.67187500000000000 0.015625000000000000 0.0000000000000000 -6.4308086055316556e-06 -1.9720558081283441e-05 0.10842254898225057 9.0999392695247885e-08 -5.5938588316214674e-08 0.67187500000000000 0.015625000000000000 0.67186856919139448 0.015605279441918718 
0.68750000000000000 0.0000000000000000 0.0000000000000000 -6.8258326073627200e-06 -2.0122807508965814e-05 0.087501514039360073 8.7653975325029809e-08 0.0000000000000000 0.68750000000000000 0.0000000000000000 0.68749317416739275 -2.0122807508965814e-05 
0.68750000000000000 0.015625000000000000 0.0000000000000000 -6.4516168315284037e-06 -2.0104165079407012e-05 0.094610831085337924 8.5392526701613871e-08 -5.7289311026834799e-08 0.68750000000000000 0.015625000000000000 0.68749354838316845 0.015604895834920593 
0.70312500000000000 0.0000000000000000 0.0000000000000000 -6.8410898139889150e-06 -2.0500458517240879e-05 0.074665435619020018 8.1698599623713595e-08 0.0000000000000000 0.70312500000000000 0.0000000000000000 0.70311815891018592 -2.0500458517240879e-05 
0.70312500000000000 0.015625000000000000 0.0000000000000000 -6.4694466691139912e-06 -2.0484707924347373e-05 0.081680573688880168 7.9672827616002669e-08 -5.8374861467896047e-08 0.70312500000000000 0.015625000000000000 0.70311853055333084 0.015604515292075653 
0.71875000000000000 0.0000000000000000 0.0000000000000000 -6.8535115798755105e-06 -2.0875172268410060e-05 0.062755178790082189 7.5604534496598342e-08 0.0000000000000000 0.71875000000000000 0.0000000000000000 0.71874314648842008 -2.0875172268410060e-05 
0.71875000000000000 0.015625000000000000 0.0000000000000000 -6.4844986526463726e-06 -2.0862106989474193e-05 0.069648878471340367 7.3843809211190451e-08 -5.9166446733723959e-08 0.71875000000000000 0.015625000000000000 0.71874351550134741 0.015604137893010525 
0.73437500000000000 0.0000000000000000 0.0000000000000000 -6.8633178700911931e-06 -2.1246887780888144e-05 0.051789459785506697 6.9374402944889987e-08 0.0000000000000000 0.73437500000000000 0.0000000000000000 0.73436813668212986 -2.1246887780888144e-05 
0.73437500000000000 0.015625000000000000 0.0000000000000000 -6.4969777896167226e-06 -2.1236296498032853e-05 0.058532069139508203 6.7911750448434250e-08 -5.9632406393248126e-08 0.73437500000000000 0.015625000000000000 0.73436850302221035 0.015603763703501966 
0.75000000000000000 0.0000000000000000 0.0000000000000000 -6.8707346938948358e-06 -2.1615559509563564e-05 0.041785881643521892 6.3013823380035974e-08 0.0000000000000000 0.75000000000000000 0.0000000000000000 0.74999312926530626 -2.1615559509563564e-05 
0.75000000000000000 0.015625000000000000 0.0000000000000000 -6.5070934714502468e-06 -2.1607226221356814e-05 0.048345198767681279 6.1886591322840787e-08 -5.9737828665571689e-08 0.75000000000000000 0.015625000000000000 0.74999349290652850 0.015603392773778644 
0.76562500000000000 0.0000000000000000 0.0000000000000000 -6.8759941006580447e-06 -2.1981159172110200e-05 0.032760275924777399 5.6532537447345954e-08 0.0000000000000000 0.76562500000000000 0.0000000000000000 0.76561812400589935 -2.1981159172110200e-05 
0.76562500000000000 0.015625000000000000 0.0000000000000000 -6.5150592916638946e-06 -2.1974863414729890e-05 0.039101401577154082 5.5783103777552225e-08 -5.9444213836527401e-08 0.76562500000000000 0.015625000000000000 0.76561848494070839 0.015603025136585269 
0.78125000000000000 0.0000000000000000 0.0000000000000000 -6.8793340676482296e-06 -2.2343677819796970e-05 0.024725822881130257 4.9945919270198421e-08 0.0000000000000000 0.78125000000000000 0.0000000000000000 0.78124312066593238 -2.2343677819796970e-05 
0.78125000000000000 0.015625000000000000 0.0000000000000000 -6.5210927396960427e-06 -2.2339195037266923e-05 0.030811043481221004 4.9622410867148396e-08 -5.8709239221278239e-08 0.78125000000000000 0.015625000000000000 0.78124347890726031 0.015602660804962731 
0.79687500000000000 0.0000000000000000 0.0000000000000000 -6.8809982311187022e-06 -2.2703128193536460e-05 0.017691881909343152 4.3276993460168574e-08 0.0000000000000000 0.79687500000000000 0.0000000000000000 0.79686811900176890 -2.2703128193536460e-05 
0.79687500000000000 0.015625000000000000 0.0000000000000000 -6.5254147296314764e-06 -2.2700230308748417e-05 0.023480614598459137 4.3433940351909491e-08 -5.7486718699040218e-08 0.79687500000000000 0.015625000000000000 0.79686847458527044 0.015602299769691253 
0.81250000000000000 0.0000000000000000 0.0000000000000000 -6.8812353934701899e-06 -2.3059547409327500e-05 0.011662445889970370 3.6559133172787749e-08 0.0000000000000000 0.81250000000000000 0.0000000000000000 0.81249311876460650 -2.3059547409327500e-05 
0.81250000000000000 0.015625000000000000 0.0000000000000000 -6.5282489117708632e-06 -2.3058003663251284e-05 0.017111294764708528 3.7257907412818456e-08 -5.5726909734110420e-08 0.81250000000000000 0.015625000000000000 0.81249347175108821 0.015601941996336749 
0.82812500000000000 0.0000000000000000 0.0000000000000000 -6.8802987125959940e-06 -2.3413000019021718e-05 0.0066341129646525386 2.9839643607280123e-08 0.0000000000000000 0.82812500000000000 0.0000000000000000 0.82811811970128746 -2.3413000019021718e-05 
0.82812500000000000 0.015625000000000000 0.0000000000000000 -6.5298207011636097e-06 -2.3412578165566328e-05 0.011697112176585331 3.1148394828257934e-08 -5.3377428258608429e-08 0.82812500000000000 0.015625000000000000 0.82811847017929885 0.015601587421834434 
0.84375000000000000 0.0000000000000000 0.0000000000000000 -6.8784444409855977e-06 -2.3763581489936666e-05 0.0025934526030764924 2.3184510012717966e-08 0.0000000000000000 0.84375000000000000 0.0000000000000000 0.84374312155555897 -2.3763581489936666e-05 
0.84375000000000000 0.015625000000000000 0.0000000000000000 -6.5303559405073618e-06 -2.3764049459329978e-05 0.0072226113995137930 2.5177068084695750e-08 -5.0385150747291634e-08 0.84375000000000000 0.015625000000000000 0.84374346964405944 0.015601235950540670 
0.85937500000000000 0.0000000000000000 0.0000000000000000 -6.8759300255217016e-06 -2.4111422134866694e-05 -0.00048636060681727321 1.6684468608016892e-08 0.0000000000000000 0.85937500000000000 0.0000000000000000 0.85936812406997432 -2.4111422134866694e-05 
0.85937500000000000 0.015625000000000000 0.0000000000000000 -6.5300790948780125e-06 -2.4112550310239264e-05 0.0036599629786837075 1.9437235116873443e-08 -4.6699886707791687e-08 0.85937500000000000 0.015625000000000000 0.85936846992090510 0.015600887449689760 
0.87500000000000000 0.0000000000000000 0.0000000000000000 -6.8730112948547026e-06 -2.4456691491240191e-05 -0.0026497364494773349 1.0462693822871328e-08 0.0000000000000000 0.87500000000000000 0.0000000000000000 0.87499312698870513 -2.4456691491240191e-05 
0.87500000000000000 0.015625000000000000 0.0000000000000000 -6.5292108519574545e-06 -2.4458255782769245e-05 0.00096550431582801755 1.4048050414844913e-08 -4.2280312304470564e-08 0.87500000000000000 0.015625000000000000 0.87499347078914802 0.015600541744217230 
0.89062500000000000 0.0000000000000000 0.0000000000000000 -6.8699383340902433e-06 -2.4799603071491922e-05 -0.0039636480375733908 4.6838042086028641e-09 0.0000000000000000 0.89062500000000000 0.0000000000000000 0.89061813006166590 -2.4799603071491922e-05 
0.89062500000000000 0.015625000000000000 0.0000000000000000 -6.5279649720163719e-06 -2.4801389022379968e-05 -0.00092413439610359823 9.1562118680619816e-09 -3.7105937448658659e-08 0.89062500000000000 0.015625000000000000 0.89061847203502797 0.015600198610977620 
0.90625000000000000 0.0000000000000000 0.0000000000000000 -6.8669494533595087e-06 -2.5140419229612664e-05 -0.0045231350819685337 -4.3966648031429800e-10 0.0000000000000000 0.90625000000000000 0.0000000000000000 0.90624313305054660 -2.5140419229612664e-05 