# For a description of the Tecplot format see the Tecplot User's guide.
#
Variables=x,y,z,s_u,s_v,s_p,x,y,ref_u,ref_v,u,v
Zone f=fepoint, n=1089, e=2048, et=quadrilateral, c=black
0.00000 0.00000 0.00000 0.0000000000000000 0.0000000000000000 2.6232234150838183 0.0000000000000000 0.0000000000000000 0.0000000000000000 0.0000000000000000 0.0000000000000000 0.0000000000000000 
0.031250000000000000 0.0000000000000000 0.0000000000000000 -1.0660686108739130e-06 -2.2722274669883159e-06 2.1582691223588526 3.2894053532349721e-06 0.0000000000000000 0.031250000000000000 0.0000000000000000 0.031248933931389125 -2.2722274669883159e-06 
0.031250000000000000 0.031250000000000000 0.0000000000000000 -2.7320906429944122e-07 -1.4437058482021636e-06 2.2561498680618812 1.9938319252961870e-06 5.7751021945583818e-07 0.031250000000000000 0.031250000000000000 0.031249726790935701 0.031248556294151797 
0.0000000000000000 0.031250000000000000 0.0000000000000000 0.0000000000000000 0.0000000000000000 2.3901690720361990 0.0000000000000000 2.1300031237479389e-06 0.0000000000000000 0.031250000000000000 0.0000000000000000 0.031250000000000000 
0.062500000000000000 0.0000000000000000 0.0000000000000000 -1.7792166892651390e-06 -3.5255303723927036e-06 1.6398250706075046 1.1701264662407411e-06 0.0000000000000000 0.062500000000000000 0.0000000000000000 0.062498220783310736 -3.5255303723927036e-06 
0.062500000000000000 0.031250000000000000 0.0000000000000000 -9.4831901849908192e-07 -2.8568571551028610e-06 1.7769713473398945 1.1898436966871914e-06 -6.3199717174337279e-07 0.062500000000000000 0.031250000000000000 0.062499051680981500 0.031247143142844897 
0.093750000000000000 0.0000000000000000 0.0000000000000000 -2.3641145315500639e-06 -4.5411220549262959e-06 1.3390180151357065 7.3311760535111679e-07 0.0000000000000000 0.093750000000000000 0.0000000000000000 0.093747635885468458 -4.5411220549262959e-06 
0.093750000000000000 0.031250000000000000 0.0000000000000000 -1.5432814153688929e-06 -3.9740713627716901e-06 1.4308614017550534 8.7329075789985445e-07 -3.0758141843737649e-07 0.093750000000000000 0.031250000000000000 0.093748456718584630 0.031246025928637230 
0.12500000000000000 0.0000000000000000 0.0000000000000000 -2.8770344403440450e-06 -5.4614343316818539e-06 1.1505698646226714 4.8406956870521198e-07 0.0000000000000000 0.12500000000000000 0.0000000000000000 0.12499712296555966 -5.4614343316818539e-06 
0.12500000000000000 0.031250000000000000 0.0000000000000000 -2.0713967896731437e-06 -4.9625121800798770e-06 1.2100128382144815 5.5388704490129463e-07 -2.0887586341182096e-07 0.12500000000000000 0.031250000000000000 0.12499792860321034 0.031245037487819923 
0.15625000000000000 0.0000000000000000 0.0000000000000000 -3.3395398626755659e-06 -6.3351237919551806e-06 1.0180654864332466 3.5890739509905357e-07 0.0000000000000000 0.15625000000000000 0.0000000000000000 0.15624666046013733 -6.3351237919551806e-06 
0.15625000000000000 0.031250000000000000 0.0000000000000000 -2.5457225016324391e-06 -5.8871465825960949e-06 1.0585333527165461 4.0837158373399647e-07 -1.2603741391695969e-07 0.15625000000000000 0.031250000000000000 0.15624745427749834 0.031244112853417407 
0.18750000000000000 0.0000000000000000 0.0000000000000000 -3.7615694018518276e-06 -7.1844204371622048e-06 0.91519967415414261 2.9294446039034958e-07 0.0000000000000000 0.18750000000000000 0.0000000000000000 0.18749623843059815 -7.1844204371622048e-06 
0.18750000000000000 0.031250000000000000 0.0000000000000000 -2.9751096356851700e-06 -6.7779783605874423e-06 0.94469656935503032 3.2345326980879894e-07 -7.9867944575308265e-08 0.18750000000000000 0.031250000000000000 0.18749702489036432 0.031243222021639417 
0.21875000000000000 0.0000000000000000 0.0000000000000000 -4.1483389528226617e-06 -8.0209166361459196e-06 0.82913355845744052 2.5439375710290250e-07 0.0000000000000000 0.21875000000000000 0.0000000000000000 0.21874585166104718 -8.0209166361459196e-06 
0.21875000000000000 0.031250000000000000 0.0000000000000000 -3.3655869139944830e-06 -7.6504606823628471e-06 0.85218481919284583 2.7280011816384784e-07 -5.2403375532661897e-08 0.21875000000000000 0.031250000000000000 0.21874663441308598 0.031242349539317638 
0.25000000000000000 0.0000000000000000 0.0000000000000000 -4.5029081013657998e-06 -8.8510094093480909e-06 0.75336757763933848 2.3000047118007268e-07 0.0000000000000000 0.25000000000000000 0.0000000000000000 0.24999549709189864 -8.8510094093480909e-06 
0.25000000000000000 0.031250000000000000 0.0000000000000000 -3.7213528423513830e-06 -8.5130033398331230e-06 0.77259426578952828 2.4045880657733827e-07 -3.6803770962624519e-08 0.25000000000000000 0.031250000000000000 0.24999627864715765 0.031241486996660166 
0.28125000000000000 0.0000000000000000 0.0000000000000000 -4.8272822856065446e-06 -9.6782072757145140e-06 0.68446658986461628 2.1308910772550564e-07 0.0000000000000000 0.28125000000000000 0.0000000000000000 0.28124517271771438 -9.6782072757145140e-06 
0.28125000000000000 0.031250000000000000 0.0000000000000000 -4.0454355491095539e-06 -9.3702079430560594e-06 0.70144199743665503 2.1818534532595561e-07 -2.8665904340280709e-08 0.28125000000000000 0.031250000000000000 0.28124595456445084 0.031240629792056943 
0.31250000000000000 0.0000000000000000 0.0000000000000000 -5.1229351195369390e-06 -1.0504278241526978e-05 0.62054509259823432 2.0024893172297277e-07 0.0000000000000000 0.31250000000000000 0.0000000000000000 0.31249487706488044 -1.0504278241526978e-05 
0.31250000000000000 0.031250000000000000 0.0000000000000000 -4.3401183288971364e-06 -1.0224452906170864e-05 0.63624577863988374 2.0170262937560696e-07 -2.5382856177981624e-08 0.31250000000000000 0.031250000000000000 0.31249565988167111 0.031239775547093829 
0.34375000000000000 0.0000000000000000 0.0000000000000000 -5.3910739826927745e-06 -1.1329886581870399e-05 0.56054210639560942 1.8964698543555909e-07 0.0000000000000000 0.34375000000000000 0.0000000000000000 0.34374460892601738 -1.1329886581870399e-05 
0.34375000000000000 0.031250000000000000 0.0000000000000000 -4.6072149021774955e-06 -1.1076746298948921e-05 0.57558723605392625 1.8861343401276037e-07 -2.5318986437282561e-08 0.34375000000000000 0.031250000000000000 0.34374539278509780 0.031238923253701052 
0.37500000000000000 0.0000000000000000 0.0000000000000000 -5.6327827318793123e-06 -1.2154975787870462e-05 0.50385744696978951 1.8024605283189016e-07 0.0000000000000000 0.37500000000000000 0.0000000000000000 0.37499436721726814 -1.2154975787870462e-05 
0.37500000000000000 0.031250000000000000 0.0000000000000000 -4.8482481825430914e-06 -1.1927221583752436e-05 0.51864090763775639 1.7752568284745785e-07 -2.7394565294053789e-08 0.37500000000000000 0.031250000000000000 0.37499515175181747 0.031238072778416250 
0.40625000000000000 0.0000000000000000 0.0000000000000000 -5.8491016553864039e-06 -1.2979013063081799e-05 0.45016022872364952 1.7143554200572436e-07 0.0000000000000000 0.40625000000000000 0.0000000000000000 0.40624415089834459 -1.2979013063081799e-05 
0.40625000000000000 0.031250000000000000 0.0000000000000000 -5.0645669061443189e-06 -1.2775443920064132e-05 0.46492712778462802 1.6759776464150952e-07 -3.0866344758869156e-08 0.40625000000000000 0.031250000000000000 0.40624493543309387 0.031237224556079937 
0.43750000000000000 0.0000000000000000 0.0000000000000000 -6.0410737186246557e-06 -1.3801152861833824e-05 0.39928305159896543 1.6284318558278864e-07 0.0000000000000000 0.43750000000000000 0.0000000000000000 0.43749395892628140 -1.3801152861833824e-05 
0.43750000000000000 0.031250000000000000 0.0000000000000000 -5.2574221495096034e-06 -1.3620609063835123e-05 0.41417604756098131 1.5830373003787909e-07 -3.5202541632689172e-08 0.43750000000000000 0.031250000000000000 0.43749474257785043 0.031236379390936164 
0.46875000000000000 0.0000000000000000 0.0000000000000000 -6.2097720190227120e-06 -1.4620350526959183e-05 0.35116092763043188 1.5423513932996500e-07 0.0000000000000000 0.46875000000000000 0.0000000000000000 0.46874379022798096 -1.4620350526959183e-05 
0.46875000000000000 0.031250000000000000 0.0000000000000000 -5.4280178413075595e-06 -1.4461677943028898e-05 0.36624933204874960 1.4930626358939385e-07 -4.0008922992372849e-08 0.46875000000000000 0.031250000000000000 0.46874457198215863 0.031235538322056972 
0.50000000000000000 0.0000000000000000 0.0000000000000000 -6.3563165546085239e-06 -1.5435443986447959e-05 0.30579472153883025 1.4546030098517138e-07 0.0000000000000000 0.50000000000000000 0.0000000000000000 0.49999364368344540 -1.5435443986447959e-05 
0.50000000000000000 0.031250000000000000 0.0000000000000000 -5.5775443607137061e-06 -1.5297471053136272e-05 0.32109320079876175 1.4038454015187070e-07 -4.4982328907054606e-08 0.50000000000000000 0.031250000000000000 0.49999442245563935 0.031234702528946865 
0.53125000000000000 0.0000000000000000 0.0000000000000000 -6.4818849448724255e-06 -1.6245214537301093e-05 0.26322859652533742 1.3641801216156387e-07 0.0000000000000000 0.53125000000000000 0.0000000000000000 0.53124351811505510 -1.6245214537301093e-05 
0.53125000000000000 0.031250000000000000 0.0000000000000000 -5.7072011249697820e-06 -1.6126737043817632e-05 0.27870924506270239 1.3139189290744008e-07 -4.9879689833520930e-08 0.53125000000000000 0.031250000000000000 0.53124429279887508 0.031233873262956183 
0.56250000000000000 0.0000000000000000 0.0000000000000000 -6.5877198791831627e-06 -1.7048433900910797e-05 0.22353567663233345 1.2703895925885723e-07 0.0000000000000000 0.56250000000000000 0.0000000000000000 0.56249341228012084 -1.7048433900910797e-05 
0.56250000000000000 0.031250000000000000 0.0000000000000000 -5.8182120171442196e-06 -1.6948204588049628e-05 0.23913564533641896 1.2223054175528512e-07 -5.4496122727340587e-08 0.56250000000000000 0.031250000000000000 0.56249418178798283 0.031233051795411946 
0.59375000000000000 0.0000000000000000 0.0000000000000000 -6.6751349989895132e-06 -1.7843902539740445e-05 0.18680849726138704 1.1727417123550117e-07 0.0000000000000000 0.59375000000000000 0.0000000000000000 0.59374332486500103 -1.7843902539740445e-05 
0.59375000000000000 0.031250000000000000 0.0000000000000000 -5.9118361586411624e-06 -1.7760623682085865e-05 0.20243450920394188 1.1283681576516072e-07 -5.8648516485886721e-08 0.59375000000000000 0.031250000000000000 0.59374408816384150 0.031232239376317913 
0.62500000000000000 0.0000000000000000 0.0000000000000000 -6.7455202497521154e-06 -1.8630482967629129e-05 0.15315200659281220 1.0708958124792492e-07 0.0000000000000000 0.62500000000000000 0.0000000000000000 0.62499325447975029 -1.8630482967629129e-05 
0.62500000000000000 0.031250000000000000 0.0000000000000000 -5.9893756170908559e-06 -1.8562800871209945e-05 0.16868263239115880 1.0317345422073926e-07 -6.2162562881242528e-08 0.62500000000000000 0.031250000000000000 0.62499401062438287 0.031231437199128794 
0.65625000000000000 0.0000000000000000 0.0000000000000000 -6.8003472582059442e-06 -1.9407131097694619e-05 0.12267745486302979 9.6465169874913634e-08 0.0000000000000000 0.65625000000000000 0.0000000000000000 0.65624319965274180 -1.9407131097694619e-05 
0.65625000000000000 0.031250000000000000 0.0000000000000000 -6.0521809868290213e-06 -1.9353632004126102e-05 0.13796378990347657 9.3227339938171221e-08 -6.4862116091289849e-08 0.65625000000000000 0.031250000000000000 0.65624394781901330 0.031230646367995874 
0.68750000000000000 0.0000000000000000 0.0000000000000000 -6.8411748725079582e-06 -2.0172928358466052e-05 0.095495727418499557 8.5398217557270720e-08 0.0000000000000000 0.68750000000000000 0.0000000000000000 0.68749315882512751 -2.0172928358466052e-05 
0.68750000000000000 0.031250000000000000 0.0000000000000000 -6.1016552757170177e-06 -2.0132135715393855e-05 0.11036104393418987 8.3011845436897605e-08 -6.6560446427731480e-08 0.68750000000000000 0.031250000000000000 0.68749389834472430 0.031229867864284607 
0.71875000000000000 0.0000000000000000 0.0000000000000000 -6.8696545465742957e-06 -2.0927117269008795e-05 0.071708694059871694 7.3912370311681641e-08 0.0000000000000000 0.71875000000000000 0.0000000000000000 0.71874313034545345 -2.0927117269008795e-05 
0.71875000000000000 0.031250000000000000 0.0000000000000000 -6.1392561062742926e-06 -2.0897490779879739e-05 0.085947708926572386 7.2574178801872402e-08 -6.7053613262663671e-08 0.71875000000000000 0.031250000000000000 0.71874386074389374 0.031229102509220119 
0.75000000000000000 0.0000000000000000 0.0000000000000000 -6.8875346393907080e-06 -2.1669143335867114e-05 0.051397038171875825 6.2069097119014766e-08 0.0000000000000000 0.75000000000000000 0.0000000000000000 0.74999311246536060 -2.1669143335867114e-05 
0.75000000000000000 0.031250000000000000 0.0000000000000000 -6.1664958401023422e-06 -2.1649080697150858e-05 0.064775673502281583 6.2005699186778374e-08 -6.6117001778943383e-08 0.75000000000000000 0.031250000000000000 0.74999383350415993 0.031228350919302848 
0.78125000000000000 0.0000000000000000 0.0000000000000000 -6.8966617803137108e-06 -2.2398706470631956e-05 0.034603088774584144 4.9998453792523496e-08 0.0000000000000000 0.78125000000000000 0.0000000000000000 0.78124310333821967 -2.2398706470631956e-05 
0.78125000000000000 0.031250000000000000 0.0000000000000000 -6.1849388289120568e-06 -2.2386549288466829e-05 0.046860004513170996 5.1461977718051406e-08 -6.3507693191057731e-08 0.78125000000000000 0.031250000000000000 0.78124381506117124 0.031227613450711535 
0.81250000000000000 0.0000000000000000 0.0000000000000000 -6.8989759128281096e-06 -2.3115825453319082e-05 0.021307261820984677 3.7894280565842472e-08 0.0000000000000000 0.81250000000000000 0.0000000000000000 0.81249310102408712 -2.3115825453319082e-05 
0.81250000000000000 0.031250000000000000 0.0000000000000000 -6.1961945229328970e-06 -2.3109871585447788e-05 0.032159281879202688 4.1162135033088285e-08 -5.8975890687772651e-08 0.81250000000000000 0.031250000000000000 0.81249380380547709 0.031226890128414553 
0.84375000000000000 0.0000000000000000 0.0000000000000000 -6.8964930872380789e-06 -2.3820919008561700e-05 0.011398775609920942 2.6161757506467762e-08 0.0000000000000000 0.84375000000000000 0.0000000000000000 0.84374310350691273 -2.3820919008561700e-05 
0.84375000000000000 0.031250000000000000 0.0000000000000000 -6.2019045898069652e-06 -2.3819444617151974e-05 0.020553378899973818 3.1460418831168198e-08 -5.2301542864423090e-08 0.84375000000000000 0.031250000000000000 0.84374379809541022 0.031226180555382847 
0.87500000000000000 0.0000000000000000 0.0000000000000000 -6.8912652542195187e-06 -2.4514905164830411e-05 0.0046409976851959009 1.5094814834220261e-08 0.0000000000000000 0.87500000000000000 0.0000000000000000 0.87499310873474589 -2.4514905164830411e-05 
0.87500000000000000 0.031250000000000000 0.0000000000000000 -6.2037210288275478e-06 -2.4516201777367473e-05 0.011822463212082586 2.2617344399488796e-08 -4.3339991768504804e-08 0.87500000000000000 0.031250000000000000 0.87499379627897123 0.031225483798222629 
0.90625000000000000 0.0000000000000000 0.0000000000000000 -6.8852983119880490e-06 -2.5199314538827354e-05 0.00064248805503026505 6.0132846761541792e-09 0.0000000000000000 0.90625000000000000 0.0000000000000000 0.90624311470168806 -2.5199314538827354e-05 
0.90625000000000000 0.031250000000000000 0.0000000000000000 -6.2032702696613201e-06 -2.5201751014436032e-05 0.0056428024051204456 1.5482409663380042e-08 -3.2261537361702626e-08 0.90625000000000000 0.031250000000000000 0.90624379672973021 0.031224798248985563 
0.93750000000000000 0.0000000000000000 0.0000000000000000 -6.8803907366190020e-06 -2.5876386399672977e-05 -0.0011817546704732721 -1.6972274799907665e-09 0.0000000000000000 0.93750000000000000 0.0000000000000000 0.93749311960926340 -2.5876386399672977e-05 
0.93750000000000000 0.031250000000000000 0.0000000000000000 -6.2020902633182093e-06 -2.5878522312763734e-05 0.0015987066097835200 8.9391682602479668e-09 -1.9418774079548061e-08 0.93750000000000000 0.031250000000000000 0.93749379790973653 0.031224121477687241 
0.96875000000000000 0.0000000000000000 0.0000000000000000 -6.8778115523313305e-06 -2.6549036808601837e-05 -0.0016505921185477413 -3.5568667536428275e-09 0.0000000000000000 0.96875000000000000 0.0000000000000000 0.96874312218844771 -2.6549036808601837e-05 
0.96875000000000000 0.031250000000000000 0.0000000000000000 -6.2015092673993520e-06 -2.6549876998252119e-05 -0.00076000721229088164 7.5443626843097083e-09 -7.5960056771253285e-09 0.96875000000000000 0.031250000000000000 0.96874379849073267 0.031223450123001751 
1.0000000000000000 0.0000000000000000 0.0000000000000000 -6.8775633345781256e-06 -2.7220209622685418e-05 -0.0019057785625949820 0.0000000000000000 0.0000000000000000 1.0000000000000000 0.0000000000000000 0.99999312243666538 -2.7220209622685418e-05 
1.0000000000000000 0.031250000000000000 0.0000000000000000 -6.2023350835654167e-06 -2.7219980254283264e-05 -0.0016429428007967803 0.0000000000000000 3.4637074341100650e-09 1.0000000000000000 0.031250000000000000 0.99999379766491658 0.031222780019745721 
0.031250000000000000 0.062500000000000000 0.0000000000000000 -1.3774402708405091e-07 -1.1081380086209328e-06 2.0073106876040154 4.5166982810807138e-07 8.5281074460378967e-07 0.031250000000000000 0.062500000000000000 0.031249862255972916 0.062498891861991375 
0.0000000000000000 0.062500000000000000 0.0000000000000000 0.0000000000000000 0.0000000000000000 2.0137550666084230 0.0000000000000000 1.2176374289293868e-06 0.0000000000000000 0.062500000000000000 0.0000000000000000 0.062500000000000000 
0.062500000000000000 0.062500000000000000 0.0000000000000000 -4.9162275578649904e-07 -2.2855935043437352e-06 1.7644069060653893 1.0240094219175917e-06 4.1388129593468035e-07 0.062500000000000000 0.062500000000000000 0.062499508377244210 0.062497714406495659 
0.093750000000000000 0.062500000000000000 0.0000000000000000 -9.8128794723855141e-07 -3.4349202697527676e-06 1.4655248452565239 8.8959402541994247e-07 4.3915126505017647e-08 0.093750000000000000 0.062500000000000000 0.093749018712052767 0.062496565079730247 
0.12500000000000000 0.062500000000000000 0.0000000000000000 -1.4596940656395331e-06 -4.4730968656294467e-06 1.2373445657757072 5.8767755351563575e-07 -1.2216820786070361e-08 0.12500000000000000 0.062500000000000000 0.12499854030593437 0.062495526903134369 
0.15625000000000000 0.062500000000000000 0.0000000000000000 -1.9060694595096783e-06 -5.4435354606745346e-06 1.0745009656102686 4.3775756265051730e-07 2.7305150125405092e-09 0.15625000000000000 0.062500000000000000 0.15624809393054048 0.062494556464539323 
0.18750000000000000 0.062500000000000000 0.0000000000000000 -2.3172947504157687e-06 -6.3747022219860578e-06 0.95273102302920198 3.3918341693453727e-07 1.2643463189843152e-08 0.18750000000000000 0.062500000000000000 0.18749768270524958 0.062493625297778015 
0.21875000000000000 0.062500000000000000 0.0000000000000000 -2.6944606120681095e-06 -7.2830679135958662e-06 0.85551401514450476 2.8125100416001929e-07 2.0124735570561934e-08 0.21875000000000000 0.062500000000000000 0.21874730553938795 0.062492716932086405 
0.25000000000000000 0.062500000000000000 0.0000000000000000 -3.0396050498706991e-06 -8.1781138115441635e-06 0.77348711421246907 2.4383495324522218e-07 2.2791297254620302e-08 0.25000000000000000 0.062500000000000000 0.24999696039495012 0.062491821886188459 
0.28125000000000000 0.062500000000000000 0.0000000000000000 -3.3548045543763861e-06 -9.0652363262967147e-06 0.70141334579281767 2.1823148959419022e-07 2.2153034320994717e-08 0.28125000000000000 0.062500000000000000 0.28124664519544562 0.062490934763673713 
0.31250000000000000 0.062500000000000000 0.0000000000000000 -3.6419376890953921e-06 -9.9473555654585374e-06 0.63631037526913625 1.9950258108864912e-07 1.9100871760140528e-08 0.31250000000000000 0.062500000000000000 0.31249635806231085 0.062490052644434545 
0.34375000000000000 0.062500000000000000 0.0000000000000000 -3.9026625201168858e-06 -1.0825836143713282e-05 0.57642940063413906 1.8488893793282149e-07 1.4356064937845042e-08 0.34375000000000000 0.062500000000000000 0.34374609733747991 0.062489174163856291 
0.37500000000000000 0.062500000000000000 0.0000000000000000 -4.1384551989281107e-06 -1.1701040137243715e-05 0.52071938479355639 1.7278948794117628e-07 8.4483475396911770e-09 0.37500000000000000 0.062500000000000000 0.37499586154480108 0.062488298959862749 
0.40625000000000000 0.062500000000000000 0.0000000000000000 -4.3506589464548394e-06 -1.2572674294043422e-05 0.46854001659332334 1.6223145371469903e-07 1.7805923276965315e-09 0.40625000000000000 0.062500000000000000 0.40624564934105356 0.062487427325705953 
0.43750000000000000 0.062500000000000000 0.0000000000000000 -4.5405275477656992e-06 -1.3440016954653210e-05 0.41950226865326207 1.5260359597920391e-07 -5.3302546829940961e-09 0.43750000000000000 0.062500000000000000 0.43749545947245222 0.062486559983045344 
0.46875000000000000 0.062500000000000000 0.0000000000000000 -4.7092597493145418e-06 -1.4302071584059140e-05 0.37337594076885533 1.4351109854316168e-07 -1.2626867020554069e-08 0.46875000000000000 0.062500000000000000 0.46874529074025068 0.062485697928415941 
0.50000000000000000 0.062500000000000000 0.0000000000000000 -4.8580250668828828e-06 -1.5157673958317627e-05 0.33003366986169685 1.3469428087360060e-07 -1.9893330833209443e-08 0.50000000000000000 0.062500000000000000 0.49999514197493317 0.062484842326041685 
0.53125000000000000 0.062500000000000000 0.0000000000000000 -4.9879826250488716e-06 -1.6005569384428153e-05 0.28941558298365194 1.2598131708660066e-07 -2.6941813590832332e-08 0.53125000000000000 0.062500000000000000 0.53124501201737495 0.062483994430615579 
0.56250000000000000 0.062500000000000000 0.0000000000000000 -5.1002947055149383e-06 -1.6844470410318337e-05 0.25150600656228983 1.1726011402091407e-07 -3.3602014646786580e-08 0.56250000000000000 0.062500000000000000 0.56249489970529443 0.062483155529589683 
0.59375000000000000 0.062500000000000000 0.0000000000000000 -5.1961364097640647e-06 -1.7673102109125525e-05 0.21631729589259238 1.0846175914008589e-07 -3.9712324718863531e-08 0.59375000000000000 0.062500000000000000 0.59374480386359008 0.062482326897890884 
0.62500000000000000 0.062500000000000000 0.0000000000000000 -5.2767025114919882e-06 -1.8490240086558643e-05 0.18387773552759148 9.9551534313566099e-08 -4.5112167248287953e-08 0.62500000000000000 0.062500000000000000 0.62499472329748851 0.062481509759913449 
0.65625000000000000 0.062500000000000000 0.0000000000000000 -5.3432122821693441e-06 -1.9294745280214040e-05 0.15422145306135324 9.0525441453140706e-08 -4.9635358646407823e-08 0.65625000000000000 0.062500000000000000 0.65624465678771771 0.062480705254719777 
0.68750000000000000 0.062500000000000000 0.0000000000000000 -5.3969128535045986e-06 -2.0085599083007508e-05 0.12737881455488589 8.1410931955047622e-08 -5.3104674290080078e-08 0.68750000000000000 0.062500000000000000 0.68749460308714649 0.062479914400916992 
0.71875000000000000 0.062500000000000000 0.0000000000000000 -5.4390815529673558e-06 -2.0861942156450176e-05 0.10336607789437337 7.2271875523956658e-08 -5.5328132172202698e-08 0.71875000000000000 0.062500000000000000 0.71874456091844696 0.062479138057843553 
0.75000000000000000 0.062500000000000000 0.0000000000000000 -5.4710276328292411e-06 -2.1623120396736136e-05 0.082173338987842626 6.3214026096203806e-08 -5.6098250071916092e-08 0.75000000000000000 0.062500000000000000 0.74999452897236718 0.062478376879603260 
0.78125000000000000 0.062500000000000000 0.0000000000000000 -5.4940939398197405e-06 -2.2368741790325931e-05 0.063750360924005142 5.4399725481675436e-08 -5.5195705886019282e-08 0.78125000000000000 0.062500000000000000 0.78124450590606020 0.062477631258209675 
0.81250000000000000 0.062500000000000000 0.0000000000000000 -5.5096593284348563e-06 -2.3098748211627053e-05 0.047990872184686395 4.6026574252423080e-08 -5.2402054414092013e-08 0.81250000000000000 0.062500000000000000 0.81249449034067156 0.062476901251788376 
0.84375000000000000 0.062500000000000000 0.0000000000000000 -5.5191429909679153e-06 -2.3813506372749989e-05 0.034719412130648171 3.8406639261519406e-08 -4.7523320789948443e-08 0.84375000000000000 0.062500000000000000 0.84374448085700904 0.062476186493627246 
0.87500000000000000 0.062500000000000000 0.0000000000000000 -5.5240117382109425e-06 -2.4513921543571166e-05 0.023688212271361492 3.1587715160389947e-08 -4.0443548523402632e-08 0.87500000000000000 0.062500000000000000 0.87499447598826163 0.062475486078456426 
0.90625000000000000 0.062500000000000000 0.0000000000000000 -5.5257903604338379e-06 -2.5201576036497928e-05 0.014611112025636254 2.6367058568449703e-08 -3.1221776664861877e-08 0.90625000000000000 0.062500000000000000 0.90624447420963961 0.062474798423963508 
0.93750000000000000 0.062500000000000000 0.0000000000000000 -5.5260677012774659e-06 -2.5878888929118481e-05 0.0072468989555096912 2.0135327866307956e-08 -2.0227475047804944e-08 0.93750000000000000 0.062500000000000000 0.93749447393229868 0.062474121111070875 
0.96875000000000000 0.062500000000000000 0.0000000000000000 -5.5264801333851444e-06 -2.6549293160237001e-05 0.0016328080186487168 1.9331708651357094e-08 -9.0433777310691933e-09 0.96875000000000000 0.062500000000000000 0.96874447351986659 0.062473450706839760 
1.0000000000000000 0.062500000000000000 0.0000000000000000 -5.5285962461591380e-06 -2.7217428871040197e-05 -0.0011412606271609422 0.0000000000000000 1.4782679779079283e-09 1.0000000000000000 0.062500000000000000 0.99999447140375386 0.062472782571128961 
0.031250000000000000 0.093750000000000000 0.0000000000000000 -8.4883784888866427e-08 -9.1517578141155591e-07 1.7351618802287625 2.4456344159265429e-07 7.9915804524927965e-07 0.031250000000000000 0.093750000000000000 0.031249915116215110 0.093749084824218606 
0.0000000000000000 0.093750000000000000 0.0000000000000000 0.0000000000000000 0.0000000000000000 1.7122880241548486 0.0000000000000000 9.4483475057917423e-07 0.0000000000000000 0.093750000000000000 0.0000000000000000 0.093750000000000000 
0.062500000000000000 0.093750000000000000 0.0000000000000000 -3.0307828820641719e-07 -1.9359921352965337e-06 1.6122084054012891 5.6233095126750311e-07 5.8840055651818771e-07 0.062500000000000000 0.093750000000000000 0.062499696921711791 0.093748064007864715 
0.093750000000000000 0.093750000000000000 0.0000000000000000 -6.3125480507058670e-07 -2.9962359850086916e-06 1.4207131875279568 6.5885188175411173e-07 2.5743748217902807e-07 0.093750000000000000 0.093750000000000000 0.093749368745194919 0.093747003764014999 
0.12500000000000000 0.093750000000000000 0.0000000000000000 -1.0190341348368976e-06 -4.0378096458431110e-06 1.2259084576267902 5.6227757453820968e-07 9.7752960336346846e-08 0.12500000000000000 0.093750000000000000 0.12499898096586516 0.093745962190354151 
0.15625000000000000 0.093750000000000000 0.0000000000000000 -1.4087847726704994e-06 -5.0333346157646857e-06 1.0680593804058265 4.3854545596343814e-07 5.8952746518399063e-08 0.15625000000000000 0.093750000000000000 0.15624859121522736 0.093744966665384233 
0.18750000000000000 0.093750000000000000 0.0000000000000000 -1.7815658157527940e-06 -5.9943987772071146e-06 0.94522686646666731 3.4388019347604675e-07 4.8641973349062140e-08 0.18750000000000000 0.093750000000000000 0.18749821843418424 0.093744005601222799 
0.21875000000000000 0.093750000000000000 0.0000000000000000 -2.1307713664535261e-06 -6.9328302362691209e-06 0.84674755594259310 2.8375699711906981e-07 4.6685608269877309e-08 0.21875000000000000 0.093750000000000000 0.21874786922863354 0.093743067169763730 
0.25000000000000000 0.093750000000000000 0.0000000000000000 -2.4544268114466728e-06 -7.8568000083517083e-06 0.76435392046835571 2.4309198007929290e-07 4.3937173586543896e-08 0.25000000000000000 0.093750000000000000 0.24999754557318851 0.093742143199991648 
0.28125000000000000 0.093750000000000000 0.0000000000000000 -2.7524172045401477e-06 -8.7713992837891387e-06 0.69279752740159450 2.1499687121161065e-07 3.9795775063891330e-08 0.28125000000000000 0.093750000000000000 0.28124724758279546 0.093741228600716209 
0.31250000000000000 0.093750000000000000 0.0000000000000000 -3.0253822182950164e-06 -9.6795491178878638e-06 0.62889450114235046 1.9441614907907518e-07 3.4131740727739018e-08 0.31250000000000000 0.093750000000000000 0.31249697461778170 0.093740320450882111 
0.34375000000000000 0.093750000000000000 0.0000000000000000 -3.2742587203751898e-06 -1.0582695339883350e-05 0.57070312843842175 1.7850280392511551e-07 2.7314430923892985e-08 0.34375000000000000 0.093750000000000000 0.34374672574127962 0.093739417304660122 
0.37500000000000000 0.093750000000000000 0.0000000000000000 -3.5000897036498528e-06 -1.1481287018192337e-05 0.51701855928705565 1.6553292658438111e-07 1.9681817303251971e-08 0.37500000000000000 0.093750000000000000 0.37499649991029638 0.093738518712981792 
0.40625000000000000 0.093750000000000000 0.0000000000000000 -3.7039471229329520e-06 -1.2375101309777225e-05 0.46708044653447428 1.5444343424326632e-07 1.1533824555698646e-08 0.40625000000000000 0.093750000000000000 0.40624629605287704 0.093737624898690211 
0.43750000000000000 0.093750000000000000 0.0000000000000000 -3.8869037183786374e-06 -1.3263466336322920e-05 0.42040448275697861 1.4455882283730814e-07 3.1237398741184159e-09 0.43750000000000000 0.093750000000000000 0.43749611309628161 0.093736736533663670 
0.46875000000000000 0.093750000000000000 0.0000000000000000 -4.0500255325749940e-06 -1.4145416770578307e-05 0.37668270001512344 1.3543879810214543e-07 -5.3322728157892892e-09 0.46875000000000000 0.093750000000000000 0.46874594997446745 0.093735854583229417 
0.50000000000000000 0.093750000000000000 0.0000000000000000 -4.1943726398283952e-06 -1.5019804649179668e-05 0.33572221497599702 1.2679212254100506e-07 -1.3645800777653924e-08 0.50000000000000000 0.093750000000000000 0.49999580562736018 0.093734980195350814 