# For a description of the Tecplot format see the Tecplot User's guide.
#
Variables=x,y,z,s_u,s_v,s_p,x,y,ref_u,ref_v,u,v
Zone f=fepoint, n=4225, e=8192, et=quadrilateral, c=black
0.00000 0.00000 0.00000 0.0000000000000000 0.0000000000000000 3.3669642511026385 0.0000000000000000 0.0000000000000000 0.0000000000000000 0.0000000000000000 0.0000000000000000 0.0000000000000000 
0.015625000000000000 0.0000000000000000 0.0000000000000000 -6.9634785304076913e-07 -1.5106645560325296e-06 2.8208237033101020 7.2979530768563807e-06 0.0000000000000000 0.015625000000000000 0.0000000000000000 0.015624303652146959 -1.5106645560325296e-06 
0.015625000000000000 0.015625000000000000 0.0000000000000000 -1.8049213259010941e-07 -9.7283823590390795e-07 2.9366007706006094 4.7036684826017553e-06 1.3671736281236667e-06 0.015625000000000000 0.015625000000000000 0.015624819507867411 0.015624027161764096 
0.0000000000000000 0.015625000000000000 0.0000000000000000 0.0000000000000000 0.0000000000000000 3.1199554571760273 0.0000000000000000 4.2420055949297279e-06 0.0000000000000000 0.015625000000000000 0.0000000000000000 0.015625000000000000 
0.031250000000000000 0.0000000000000000 0.0000000000000000 -1.1489032569070855e-06 -2.3365310313106044e-06 2.2033075132604512 3.4080986757893974e-06 0.0000000000000000 0.031250000000000000 0.0000000000000000 0.031248851096743094 -2.3365310313106044e-06 
0.031250000000000000 0.015625000000000000 0.0000000000000000 -6.1947898961013834e-07 -1.9012519211702461e-06 2.3672090624446831 2.8366740983893859e-06 -1.2666940349663732e-06 0.031250000000000000 0.015625000000000000 0.031249380521010391 0.015623098748078828 
0.046875000000000000 0.0000000000000000 0.0000000000000000 -1.5155624570982779e-06 -2.9828943466563615e-06 1.8125659670936614 1.9289161178793051e-06 0.0000000000000000 0.046875000000000000 0.0000000000000000 0.046873484437542905 -2.9828943466563615e-06 
0.046875000000000000 0.015625000000000000 0.0000000000000000 -1.0060498455673904e-06 -2.6132132935294795e-06 1.9395623871372554 2.1586261839506210e-06 -8.4418552031724041e-07 0.046875000000000000 0.015625000000000000 0.046873993950154430 0.015622386786706471 
0.062500000000000000 0.0000000000000000 0.0000000000000000 -1.8375139211574448e-06 -3.5469706303416229e-06 1.5695875657714378 1.2423880753550713e-06 0.0000000000000000 0.062500000000000000 0.0000000000000000 0.062498162486078840 -3.5469706303416229e-06 
0.062500000000000000 0.015625000000000000 0.0000000000000000 -1.3514577404778993e-06 -3.2192901333178499e-06 1.6598066440325396 1.4153539234543917e-06 -6.9000160807003096e-07 0.062500000000000000 0.015625000000000000 0.062498648542259512 0.015621780709866683 
0.078125000000000000 0.0000000000000000 0.0000000000000000 -2.1313923204268306e-06 -4.0631771487496242e-06 1.4064766086372285 8.5192786749086430e-07 0.0000000000000000 0.078125000000000000 0.0000000000000000 0.078122868607679571 -4.0631771487496242e-06 
0.078125000000000000 0.015625000000000000 0.0000000000000000 -1.6659742535635028e-06 -3.7646951794177707e-06 1.4713275756574309 9.8878034717733009e-07 -4.9730665260756189e-07 0.078125000000000000 0.015625000000000000 0.078123334025746435 0.015621235304820583 
0.093750000000000000 0.0000000000000000 0.0000000000000000 -2.4051943746733696e-06 -4.5484912309550274e-06 1.2889954448624492 6.3171752965253606e-07 0.0000000000000000 0.093750000000000000 0.0000000000000000 0.093747594805625320 -4.5484912309550274e-06 
0.093750000000000000 0.015625000000000000 0.0000000000000000 -1.9563929143804825e-06 -4.2718546143546396e-06 1.3370745782871973 7.3433510734602311e-07 -3.6988187305554270e-07 0.093750000000000000 0.015625000000000000 0.093748043607085621 0.015620728145385647 
0.10937500000000000 0.0000000000000000 0.0000000000000000 -2.6632462016906672e-06 -5.0126705184877354e-06 1.1987032750066484 4.9995389679340837e-07 0.0000000000000000 0.10937500000000000 0.0000000000000000 0.10937233675379832 -5.0126705184877354e-06 
0.10937500000000000 0.015625000000000000 0.0000000000000000 -2.2273384351329080e-06 -4.7534035014652193e-06 1.2354947161631504 5.7507879407777251e-07 -2.7696164321670215e-07 0.10937500000000000 0.015625000000000000 0.10937277266156487 0.015620246596498535 
0.12500000000000000 0.0000000000000000 0.0000000000000000 -2.9081191452573143e-06 -5.4619036369643464e-06 1.1254027408524945 4.1654090188401868e-07 0.0000000000000000 0.12500000000000000 0.0000000000000000 0.12499709188085474 -5.4619036369643464e-06 
0.12500000000000000 0.015625000000000000 0.0000000000000000 -2.4820277194955710e-06 -5.2171342042367334e-06 1.1543848670605594 4.7176415283810999e-07 -2.0991937467733598e-07 0.12500000000000000 0.015625000000000000 0.12499751797228052 0.015619782865795765 
0.14062500000000000 0.0000000000000000 0.0000000000000000 -3.1414569672719935e-06 -5.9003627737591040e-06 1.0632490624756785 3.6105925172386130e-07 0.0000000000000000 0.14062500000000000 0.0000000000000000 0.14062185854303272 -5.9003627737591040e-06 
0.14062500000000000 0.015625000000000000 0.0000000000000000 -2.7227462167577444e-06 -5.6681578772112024e-06 1.0866730001643943 4.0200685361761752e-07 -1.6062487818976313e-07 0.14062500000000000 0.015625000000000000 0.14062227725378326 0.015619331842122788 
0.15625000000000000 0.0000000000000000 0.0000000000000000 -3.3643750552835144e-06 -6.3309784412044543e-06 1.0087427934452757 3.2244694418574708e-07 0.0000000000000000 0.15625000000000000 0.0000000000000000 0.15624663562494473 -6.3309784412044543e-06 
0.15625000000000000 0.015625000000000000 0.0000000000000000 -2.9511524122961210e-06 -6.1099819590361186e-06 1.0281109307660161 3.5305653326966160e-07 -1.2383501241495738e-07 0.15625000000000000 0.015625000000000000 0.15624704884758769 0.015618890018040966 
0.17187500000000000 0.0000000000000000 0.0000000000000000 -3.5776679514403317e-06 -6.7558669947203561e-06 0.95969694625751101 2.9448833770836575e-07 0.0000000000000000 0.17187500000000000 0.0000000000000000 0.17187142233204855 -6.7558669947203561e-06 
0.17187500000000000 0.015625000000000000 0.0000000000000000 -3.1684745439763422e-06 -6.5450927431044898e-06 0.97604579803656122 3.1751620689076992e-07 -9.6067160611750813e-08 0.17187500000000000 0.015625000000000000 0.17187183152545601 0.015618454907256897 
0.18750000000000000 0.0000000000000000 0.0000000000000000 -3.7819248912819137e-06 -7.1765856124190153e-06 0.91468875772149205 2.7353630755396981e-07 0.0000000000000000 0.18750000000000000 0.0000000000000000 0.18749621807510872 -7.1765856124190153e-06 
0.18750000000000000 0.015625000000000000 0.0000000000000000 -3.3756407368290058e-06 -6.9752935944691506e-06 0.92875577556716049 2.9091644618803564e-07 -7.4958534296311785e-08 0.18750000000000000 0.015625000000000000 0.18749662435926318 0.015618024706405531 
0.20312500000000000 0.0000000000000000 0.0000000000000000 -3.9775980970141124e-06 -7.5942933485288750e-06 0.87275925335148175 2.5735347347762405e-07 0.0000000000000000 0.20312500000000000 0.0000000000000000 0.20312102240190300 -7.5942933485288750e-06 
0.20312500000000000 0.015625000000000000 0.0000000000000000 -3.5733665330917180e-06 -7.4019125809563270e-06 0.88508336968587009 2.7045945179708471e-07 -5.8869918948320364e-08 0.20312500000000000 0.015625000000000000 0.20312142663346691 0.015617598087419042 
0.21875000000000000 0.0000000000000000 0.0000000000000000 -4.1650453215442114e-06 -8.0098575564072441e-06 0.83324248239601539 2.4450966461401589e-07 0.0000000000000000 0.21875000000000000 0.0000000000000000 0.21874583495467845 -8.0098575564072441e-06 
0.21875000000000000 0.015625000000000000 0.0000000000000000 -3.7622147508790678e-06 -7.8259360646869110e-06 0.84422653324629504 2.5433218268983364e-07 -4.6634420119854144e-08 0.21875000000000000 0.015625000000000000 0.21874623778524913 0.015617174063935313 
0.23437500000000000 0.0000000000000000 0.0000000000000000 -4.3445575886712861e-06 -8.4239268066944975e-06 0.79566466354385812 2.3405584002564108e-07 0.0000000000000000 0.23437500000000000 0.0000000000000000 0.23437065544241134 -8.4239268066944975e-06 
0.23437500000000000 0.015625000000000000 0.0000000000000000 -3.9426370949416764e-06 -8.2480981016612359e-06 0.80561539815937555 2.4132112948635257e-07 -3.7401715562134922e-08 0.23437500000000000 0.015625000000000000 0.23437105736290506 0.015616751901898341 
0.25000000000000000 0.0000000000000000 0.0000000000000000 -4.5163779966333349e-06 -8.8369823774544774e-06 0.75968231215525561 2.2534117978463697e-07 0.0000000000000000 0.25000000000000000 0.0000000000000000 0.24999548362200338 -8.8369823774544774e-06 
0.25000000000000000 0.015625000000000000 0.0000000000000000 -4.1150035513600909e-06 -8.6689423034717770e-06 0.76883685400731550 2.3059040766374579e-07 -3.0538901887562009e-08 0.25000000000000000 0.015625000000000000 0.24999588499644868 0.015616331057696527 
0.26562500000000000 0.0000000000000000 0.0000000000000000 -4.6807148838720982e-06 -9.2493755597560750e-06 0.72504288589889165 2.1790663710376670e-07 0.0000000000000000 0.26562500000000000 0.0000000000000000 0.26562031928511615 -9.2493755597560750e-06 
0.26562500000000000 0.015625000000000000 0.0000000000000000 -4.2796234799466718e-06 -9.0888658917634862e-06 0.73358674970142002 2.2154957818015814e-07 -2.5565947260421750e-08 0.26562500000000000 0.015625000000000000 0.26562072037652001 0.015615911134108236 
0.28125000000000000 0.0000000000000000 0.0000000000000000 -4.8377512959936523e-06 -9.6613552975840609e-06 0.69155890823056010 2.1142065967620991e-07 0.0000000000000000 0.28125000000000000 0.0000000000000000 0.28124516224870399 -9.6613552975840609e-06 
0.28125000000000000 0.015625000000000000 0.0000000000000000 -4.4367609770444487e-06 -9.5081518639112027e-06 0.69963859278612783 2.1377239640148324e-07 -2.2112621907583752e-08 0.28125000000000000 0.015625000000000000 0.28124556323902294 0.015615491848136090 
0.29687500000000000 0.0000000000000000 0.0000000000000000 -4.9876519413985618e-06 -1.0073089074704938e-05 0.65909043962291880 2.0563899557082918e-07 0.0000000000000000 0.29687500000000000 0.0000000000000000 0.29687001234805860 -1.0073089074704938e-05 
0.29687500000000000 0.015625000000000000 0.0000000000000000 -4.5866462227558994e-06 -9.9269929971201363e-06 0.66682243594826573 2.0694534347950689e-07 -1.9889080926889231e-08 0.29687500000000000 0.015625000000000000 0.29687041335377723 0.015615073007002879 
0.31250000000000000 0.0000000000000000 0.0000000000000000 -5.1305683907237019e-06 -1.0484678978653341e-05 0.62753288751821346 2.0037873179910907e-07 0.0000000000000000 0.31250000000000000 0.0000000000000000 0.31249486943160926 -1.0484678978653341e-05 
0.31250000000000000 0.015625000000000000 0.0000000000000000 -4.7294839706168453e-06 -1.0345510110708057e-05 0.63501025569072889 2.0083409568722418e-07 -1.8665339482389390e-08 0.31250000000000000 0.015625000000000000 0.31249527051602938 0.015614654489889293 
0.32812500000000000 0.0000000000000000 0.0000000000000000 -5.2666430169426840e-06 -1.0896174252167563e-05 0.59680833230564201 1.9550102415329862e-07 0.0000000000000000 0.32812500000000000 0.0000000000000000 0.32811973335698308 -1.0896174252167563e-05 
0.32812500000000000 0.015625000000000000 0.0000000000000000 -4.8654599734036999e-06 -1.0763766200160752e-05 0.60410559046725631 1.9526111304392745e-07 -1.8256674258971418e-08 0.32812500000000000 0.015625000000000000 0.32812013454002659 0.015614236233799839 
0.34375000000000000 0.0000000000000000 0.0000000000000000 -5.3960120131306327e-06 -1.1307581240825754e-05 0.56685923112789638 1.9089930060262016e-07 0.0000000000000000 0.34375000000000000 0.0000000000000000 0.34374460398798695 -1.1307581240825754e-05 
0.34375000000000000 0.015625000000000000 0.0000000000000000 -4.9947458970682172e-06 -1.1181777544858630e-05 0.57403604806279473 1.9009030728646718e-07 -1.8513058737346122e-08 0.34375000000000000 0.015625000000000000 0.34374500525410295 0.015613818222455141 
0.35937500000000000 0.0000000000000000 0.0000000000000000 -5.5188077227405324e-06 -1.1718871379362551e-05 0.53764376849073059 1.8649101072681108e-07 0.0000000000000000 0.35937500000000000 0.0000000000000000 0.35936948119227724 -1.1718871379362551e-05 
0.35937500000000000 0.015625000000000000 0.0000000000000000 -5.1175031123790294e-06 -1.1599522558137058e-05 0.54474779207571944 1.8521632946750063e-07 -1.9311396517774777e-08 0.35937500000000000 0.015625000000000000 0.35936988249688762 0.015613400477441863 
0.37500000000000000 0.0000000000000000 0.0000000000000000 -5.6351604500121348e-06 -1.2129987678931966e-05 0.50913237197741745 1.8221173209212738e-07 0.0000000000000000 0.37500000000000000 0.0000000000000000 0.37499436483955001 -1.2129987678931966e-05 
0.37500000000000000 0.015625000000000000 0.0000000000000000 -5.2338856432590317e-06 -1.2016948926309791e-05 0.51620142281598602 1.8055694069889968e-07 -2.0549728432188666e-08 0.37500000000000000 0.015625000000000000 0.37499476611435673 0.015612983051073693 
0.39062500000000000 0.0000000000000000 0.0000000000000000 -5.7451998727238227e-06 -1.2540850053354970e-05 0.48130506822273794 1.7801087979763576e-07 0.0000000000000000 0.39062500000000000 0.0000000000000000 0.39061925480012727 -1.2540850053354970e-05 
0.39062500000000000 0.015625000000000000 0.0000000000000000 -5.3440424744918929e-06 -1.2433979432293891e-05 0.48836885959133597 1.7604748321807048e-07 -2.2142852960147412e-08 0.39062500000000000 0.015625000000000000 0.39061965595752551 0.015612566020567707 
0.40625000000000000 0.0000000000000000 0.0000000000000000 -5.8490561481002491e-06 -1.2951359735331506e-05 0.45414945544506025 1.7384852937045737e-07 0.0000000000000000 0.40625000000000000 0.0000000000000000 0.40624415094385191 -1.2951359735331506e-05 
0.40625000000000000 0.015625000000000000 0.0000000000000000 -5.4481193680958489e-06 -1.2850516754902892e-05 0.46123095461019742 1.7163680935088251e-07 -2.4018972176008737e-08 0.40625000000000000 0.015625000000000000 0.40624455188063191 0.015612149483245097 
0.42187500000000000 0.0000000000000000 0.0000000000000000 -5.9468607805224383e-06 -1.3361402971672149e-05 0.42765913552990503 1.6969302756797241e-07 0.0000000000000000 0.42187500000000000 0.0000000000000000 0.42186905313921946 -1.3361402971672149e-05 
0.42187500000000000 0.015625000000000000 0.0000000000000000 -5.5462602998304919e-06 -1.3266447461256324e-05 0.43477564978902133 1.6728424008157531e-07 -2.6117090697616170e-08 0.42187500000000000 0.015625000000000000 0.42186945373970014 0.015611733552538741 
0.43750000000000000 0.0000000000000000 0.0000000000000000 -6.0387473037405732e-06 -1.3770854141964439e-05 0.40183249352637002 1.6551917052658622e-07 0.0000000000000000 0.43750000000000000 0.0000000000000000 0.43749396125269624 -1.3770854141964439e-05 
0.43750000000000000 0.015625000000000000 0.0000000000000000 -5.6386086001287003e-06 -1.3681645357162816e-05 0.40899654214180697 1.6295726258206068e-07 -2.8384973361725245e-08 0.43750000000000000 0.015625000000000000 0.43749436139139991 0.015611318354642837 
0.45312500000000000 0.0000000000000000 0.0000000000000000 -6.1248518186172769e-06 -1.4179578412520784e-05 0.37667174314667040 1.6130679712095234e-07 0.0000000000000000 0.45312500000000000 0.0000000000000000 0.45311887514818139 -1.4179578412520784e-05 
0.45312500000000000 0.015625000000000000 0.0000000000000000 -5.7253078639691881e-06 -1.4095974322270418e-05 0.38389176058648750 1.5862976626539539e-07 -3.0777521325819874e-08 0.45312500000000000 0.015625000000000000 0.45311927469213603 0.015610904025677731 
0.46875000000000000 0.0000000000000000 0.0000000000000000 -6.2053134187446672e-06 -1.4587434013441296e-05 0.35218217824011067 1.5703969097747419e-07 0.0000000000000000 0.46875000000000000 0.0000000000000000 0.46874379468658117 -1.4587434013441296e-05 
0.46875000000000000 0.015625000000000000 0.0000000000000000 -5.8065026796214980e-06 -1.4509290728911006e-05 0.35946308279535844 1.5428067714677760e-07 -3.3255464025374041e-08 0.46875000000000000 0.015625000000000000 0.46874419349732038 0.015610490709271089 
0.48437500000000000 0.0000000000000000 0.0000000000000000 -6.2802745297144165e-06 -1.4994274208756359e-05 0.32837158529597693 1.5270471550981943e-07 0.0000000000000000 0.48437500000000000 0.0000000000000000 0.48436871972547030 -1.4994274208756359e-05 
0.48437500000000000 0.015625000000000000 0.0000000000000000 -5.8823392152970960e-06 -1.4921445522959443e-05 0.33571523887365312 1.4989289117043971e-07 -3.5784291138178121e-08 0.48437500000000000 0.015625000000000000 0.48436911766078472 0.015610078554477042 
0.50000000000000000 0.0000000000000000 0.0000000000000000 -6.3498811827797520e-06 -1.5399949016216766e-05 0.30524978279622156 1.4829112769483314e-07 0.0000000000000000 0.50000000000000000 0.0000000000000000 0.49999365011881719 -1.5399949016216766e-05 
0.50000000000000000 0.015625000000000000 0.0000000000000000 -5.9529656944841122e-06 -1.5332286029665263e-05 0.31265536158707613 1.4545243537445459e-07 -3.8333367850489594e-08 0.50000000000000000 0.015625000000000000 0.49999404703430544 0.015609667713970335 
0.51562500000000000 0.0000000000000000 0.0000000000000000 -6.4142832397140407e-06 -1.5804306723198177e-05 0.28282826099485553 1.4379003131686396e-07 0.0000000000000000 0.51562500000000000 0.0000000000000000 0.51561858571676034 -1.5804306723198177e-05 
0.51562500000000000 0.015625000000000000 0.0000000000000000 -6.0185327843982389e-06 -1.5741657535889070e-05 0.29029255216749844 1.4094780552023597e-07 -4.0875190542428420e-08 0.51562500000000000 0.015625000000000000 0.51561898146721574 0.015609258342464112 
0.53125000000000000 0.0000000000000000 0.0000000000000000 -6.4736345825453465e-06 -1.6207195237546794e-05 0.26111990132081536 1.3919394114170551e-07 0.0000000000000000 0.53125000000000000 0.0000000000000000 0.53124352636541750 -1.6207195237546794e-05 
0.53125000000000000 0.015625000000000000 0.0000000000000000 -6.0791939170286280e-06 -1.6149404691497701e-05 0.26863753746974672 1.3636944292647046e-07 -4.3384750124584022e-08 0.53125000000000000 0.015625000000000000 0.53124392080608296 0.015608850595308503 
0.54687500000000000 0.0000000000000000 0.0000000000000000 -6.5280932793131524e-06 -1.6608463306415393e-05 0.24013875867736709 1.3449643732490581e-07 0.0000000000000000 0.54687500000000000 0.0000000000000000 0.54686847190672072 -1.6608463306415393e-05 
0.54687500000000000 0.015625000000000000 0.0000000000000000 -6.1351055583216209e-06 -1.6555372766137182e-05 0.24770239915139394 1.3170932345613996e-07 -4.5838977666394397e-08 0.54687500000000000 0.015625000000000000 0.54686886489444164 0.015608444627233863 
0.56250000000000000 0.0000000000000000 0.0000000000000000 -6.5778217348923884e-06 -1.7007961631792440e-05 0.21989989284475489 1.2969189522646512e-07 0.0000000000000000 0.56250000000000000 0.0000000000000000 0.56249342217826515 -1.7007961631792440e-05 
0.56250000000000000 0.015625000000000000 0.0000000000000000 -6.1864274378522694e-06 -1.6959408792707348e-05 0.22750035909221045 1.2696063921655576e-07 -4.8216252461063963e-08 0.56250000000000000 0.015625000000000000 0.56249381357256212 0.015608040591207293 
0.57812500000000000 0.0000000000000000 0.0000000000000000 -6.6229868341372738e-06 -1.7405543908199076e-05 0.20041923725855892 1.2477528033773098e-07 0.0000000000000000 0.57812500000000000 0.0000000000000000 0.57811837701316582 -1.7405543908199076e-05 
0.57812500000000000 0.015625000000000000 0.0000000000000000 -6.2333227486784370e-06 -1.7361362625244315e-05 0.20804560779551151 1.2211755932185097e-07 -5.0495956774833431e-08 0.57812500000000000 0.015625000000000000 0.57811876667725137 0.015607638637374755 
0.59375000000000000 0.0000000000000000 0.0000000000000000 -6.6637600830154717e-06 -1.7801067805693387e-05 0.18171349481376153 1.1974200172760357e-07 0.0000000000000000 0.59375000000000000 0.0000000000000000 0.59374333623991693 -1.7801067805693387e-05 
0.59375000000000000 0.015625000000000000 0.0000000000000000 -6.2759583247968824e-06 -1.7761087936318564e-05 0.18935316424582296 1.1717506068125879e-07 -5.2658064596693010e-08 0.59375000000000000 0.015625000000000000 0.59374372404167530 0.015607238912063682 
0.60937500000000000 0.0000000000000000 0.0000000000000000 -6.7003177519486250e-06 -1.8194395919716034e-05 0.16380005115078453 1.1458782052840891e-07 0.0000000000000000 0.60937500000000000 0.0000000000000000 0.60936829968224804 -1.8194395919716034e-05 
0.60937500000000000 0.015625000000000000 0.0000000000000000 -6.3145048015983968e-06 -1.8158443177292940e-05 0.17143875678480813 1.1212882362030466e-07 -5.4682754072167632e-08 0.60937500000000000 0.015625000000000000 0.60936868549519840 0.015606841556822708 
0.62500000000000000 0.0000000000000000 0.0000000000000000 -6.7328410241738382e-06 -1.8585396708320632e-05 0.14669689617744031 1.0930881293258659e-07 0.0000000000000000 0.62500000000000000 0.0000000000000000 0.62499326715897585 -1.8585396708320632e-05 
0.62500000000000000 0.015625000000000000 0.0000000000000000 -6.3491367628431841e-06 -1.8553292523730011e-05 0.15431871510035391 1.0697519057369039e-07 -5.6550035132738190e-08 0.62500000000000000 0.015625000000000000 0.62499365086323710 0.015606446707476270 
0.64062500000000000 0.0000000000000000 0.0000000000000000 -6.7615161505192048e-06 -1.8973945436878308e-05 0.13042254439100118 1.0390139005178562e-07 0.0000000000000000 0.64062500000000000 0.0000000000000000 0.64061823848384947 -1.8973945436878308e-05 
0.64062500000000000 0.015625000000000000 0.0000000000000000 -6.3800328758531788e-06 -1.8945506827808867e-05 0.13800986344481872 1.0171118937715763e-07 -5.8239385352761386e-08 0.64062500000000000 0.015625000000000000 0.64061861996712410 0.015606054493172192 
0.65625000000000000 0.0000000000000000 0.0000000000000000 -6.7865346104660199e-06 -1.9359925150377096e-05 0.11499594386774048 9.8362380166874655e-08 0.0000000000000000 0.65625000000000000 0.0000000000000000 0.65624321346538950 -1.9359925150377096e-05 
0.65625000000000000 0.015625000000000000 0.0000000000000000 -6.4073760147530414e-06 -1.9334964599761338e-05 0.12252940471125663 9.6334626121368362e-08 -5.9729388451350595e-08 0.65625000000000000 0.015625000000000000 0.65624359262398524 0.015605665035400241 
0.67187500000000000 0.0000000000000000 0.0000000000000000 -6.8080932776620064e-06 -1.9743227693927593e-05 0.10043636252540349 9.2689182559842988e-08 0.0000000000000000 0.67187500000000000 0.0000000000000000 0.67186819190672231 -1.9743227693927593e-05 
0.67187500000000000 0.015625000000000000 0.0000000000000000 -6.4313533695911186e-06 -1.9721553041047575e-05 0.10789478396559754 9.0844256313285887e-08 -6.0997371275788352e-08 0.67187500000000000 0.015625000000000000 0.67186856864663025 0.015605278446958954 
0.68750000000000000 0.0000000000000000 0.0000000000000000 -6.8263945860417706e-06 -2.0123754803024554e-05 0.086763238331773532 8.6880006642509672e-08 0.0000000000000000 0.68750000000000000 0.0000000000000000 0.68749317360541395 -2.0123754803024554e-05 
0.68750000000000000 0.015625000000000000 0.0000000000000000 -6.4521565369317639e-06 -2.0105169153271751e-05 0.094123518386243610 8.5240047572704664e-08 -6.2019036880178848e-08 0.68750000000000000 0.015625000000000000 0.68749354784346306 0.015604894830846728 
0.70312500000000000 0.0000000000000000 0.0000000000000000 -6.8416466902609001e-06 -2.0501419286508273e-05 0.073995977374055069 8.0934215833690393e-08 0.0000000000000000 0.70312500000000000 0.0000000000000000 0.70311815835330960 -2.0501419286508273e-05 
0.70312500000000000 0.015625000000000000 0.0000000000000000 -6.4699815849092043e-06 -2.0485720948720720e-05 0.081232978183804913 7.9523552533437707e-08 -6.2768093742127205e-08 0.70312500000000000 0.015625000000000000 0.70311853001841496 0.015604514279051280 
0.71875000000000000 0.0000000000000000 0.0000000000000000 -6.8540636110664662e-06 -2.0876146327032567e-05 0.062153679899124764 7.4852803220663308e-08 0.0000000000000000 0.71875000000000000 0.0000000000000000 0.71874314593638877 -2.0876146327032567e-05 
0.71875000000000000 0.015625000000000000 0.0000000000000000 -6.4850290826265054e-06 -2.0863128790947623e-05 0.069240099805730079 7.3698417386715426e-08 -6.3215884856620822e-08 0.71875000000000000 0.015625000000000000 0.71874351497091737 0.015604136871209052 
0.73437500000000000 0.0000000000000000 0.0000000000000000 -6.8638653522461954e-06 -2.1247874926199861e-05 0.051254769289831713 6.8639036025143652e-08 0.0000000000000000 0.73437500000000000 0.0000000000000000 0.73436813613464780 -2.1247874926199861e-05 
0.73437500000000000 0.015625000000000000 0.0000000000000000 -6.4975040799933589e-06 -2.1237326897088517e-05 0.058161008367412455 6.7771059968827346e-08 -6.3331026255133181e-08 0.73437500000000000 0.015625000000000000 0.73436850249592001 0.015603762673102912 
0.75000000000000000 0.0000000000000000 0.0000000000000000 -6.8712779705496864e-06 -2.1616559524380652e-05 0.041316492084969091 6.2299319402462715e-08 0.0000000000000000 0.75000000000000000 0.0000000000000000 0.74999312872202950 -2.1616559524380652e-05 
0.75000000000000000 0.015625000000000000 0.0000000000000000 -6.5076160194075524e-06 -2.1608265037676590e-05 0.048010520555993336 6.1751561718376099e-08 -6.3079073790864358e-08 0.75000000000000000 0.015625000000000000 0.74999349238398061 0.015603391734962323 
0.76562500000000000 0.0000000000000000 0.0000000000000000 -6.8765335729254804e-06 -2.1982171828581071e-05 0.032354248141928915 5.5844347808107431e-08 0.0000000000000000 0.76562500000000000 0.0000000000000000 0.76561812346642710 -2.1982171828581071e-05 
0.76562500000000000 0.015625000000000000 0.0000000000000000 -6.5155785548323529e-06 -2.1975910474675192e-05 0.038801491986230063 5.5654830095605790e-08 -6.2422252059302897e-08 0.76562500000000000 0.015625000000000000 0.76561848442144520 0.015603024089525325 
0.78125000000000000 0.0000000000000000 0.0000000000000000 -6.8798702057906682e-06 -2.2344702885473998e-05 0.024380698449501286 4.9290635995689070e-08 0.0000000000000000 0.78125000000000000 0.0000000000000000 0.78124312012979436 -2.2344702885473998e-05 
0.78125000000000000 0.015625000000000000 0.0000000000000000 -6.5216092464919062e-06 -2.2340250184311042e-05 0.030543964009509431 4.9502101651773064e-08 -6.1319303330459127e-08 0.78125000000000000 0.015625000000000000 0.78124347839075348 0.015602659749815688 
0.79687500000000000 0.0000000000000000 0.0000000000000000 -6.8815315876942024e-06 -2.2704165440632946e-05 0.017404583675804677 4.2662549547796531e-08 0.0000000000000000 0.79687500000000000 0.0000000000000000 0.79686811846841232 -2.2704165440632946e-05 
0.79687500000000000 0.015625000000000000 0.0000000000000000 -6.5259290902363077e-06 -2.2701293417936820e-05 0.023244054464284639 4.3322866520436532e-08 -5.9725553680931674e-08 0.79687500000000000 0.015625000000000000 0.79686847407090966 0.015602298706582063 
0.81250000000000000 0.0000000000000000 0.0000000000000000 -6.8817666179235304e-06 -2.3060596628547107e-05 0.011429169659759868 3.5994993541377906e-08 0.0000000000000000 0.81250000000000000 0.0000000000000000 0.81249311823338211 -2.3060596628547107e-05 
0.81250000000000000 0.015625000000000000 0.0000000000000000 -6.5287618292207033e-06 -2.3059074661156896e-05 0.016902525754038788 3.7157300956911758e-08 -5.7593353045784157e-08 0.81250000000000000 0.015625000000000000 0.81249347123817073 0.015601940925338844 
0.82812500000000000 0.0000000000000000 0.0000000000000000 -6.8808285667061442e-06 -2.3414061039936201e-05 0.0064502187081838525 2.9336936687408764e-08 0.0000000000000000 0.82812500000000000 0.0000000000000000 0.82811811917143319 -2.3414061039936201e-05 
0.82812500000000000 0.015625000000000000 0.0000000000000000 -6.5303329814958515e-06 -2.3413657057703457e-05 0.011512954716772083 3.1059262116561161e-08 -5.4873153534321853e-08 0.82812500000000000 0.015625000000000000 0.82811846966701841 0.015601586342942298 
0.84375000000000000 0.0000000000000000 0.0000000000000000 -6.8789738136263405e-06 -2.3764654210614177e-05 0.0024533727810109288 2.2755998283049709e-08 0.0000000000000000 0.84375000000000000 0.0000000000000000 0.84374312102618643 -2.3764654210614177e-05 
0.84375000000000000 0.015625000000000000 0.0000000000000000 -6.5308685000259481e-06 -2.3765136367528703e-05 0.0070594279161955648 2.5099856032811572e-08 -5.1515604963648628e-08 0.84375000000000000 0.015625000000000000 0.84374346913149989 0.015601234863632471 
0.85937500000000000 0.0000000000000000 0.0000000000000000 -6.8764599434542640e-06 -2.4112506564305380e-05 -0.00058915990824772715 1.6344219063668033e-08 0.0000000000000000 0.85937500000000000 0.0000000000000000 0.85936812354005665 -2.4112506564305380e-05 
0.85937500000000000 0.015625000000000000 0.0000000000000000 -6.5305929611627514e-06 -2.4113645522934752e-05 0.0035137079182782712 1.9371292634583418e-08 -4.7475443111828882e-08 0.85937500000000000 0.015625000000000000 0.85936846940703882 0.015600886354477065 
0.87500000000000000 0.0000000000000000 0.0000000000000000 -6.8735429228586813e-06 -2.4457787808465121e-05 -0.0027226825265978961 1.0224963980121865e-08 0.0000000000000000 0.87500000000000000 0.0000000000000000 0.87499312645707716 -2.4457787808465121e-05 
0.87500000000000000 0.015625000000000000 0.0000000000000000 -6.5297271528305079e-06 -2.4459359820892802e-05 0.00083187940270434523 1.3990605294024162e-08 -4.2717693255296277e-08 0.87500000000000000 0.015625000000000000 0.87499347027284713 0.015600540640179105 
0.89062500000000000 0.0000000000000000 0.0000000000000000 -6.8704729527055647e-06 -2.4800711704679399e-05 -0.0040147699554005699 4.5614082226770354e-09 0.0000000000000000 0.89062500000000000 0.0000000000000000 0.89061812952704733 -2.4800711704679399e-05 
0.89062500000000000 0.015625000000000000 0.0000000000000000 -6.5284849032022488e-06 -2.4802502722035957e-05 -0.0010493386706939378 9.1013796422378341e-09 -3.7229670512173874e-08 0.89062500000000000 0.015625000000000000 0.89061847151509677 0.015600197497277963 
0.90625000000000000 0.0000000000000000 0.0000000000000000 -6.8674883928883632e-06 -2.5141540953469782e-05 -0.0045604239809705436 -4.4022842457842482e-10 0.0000000000000000 0.90625000000000000 0.0000000000000000 0.90624313251160726 -2.5141540953469782e-05 