# For a description of the Tecplot format see the Tecplot User's guide.
#
Variables=x,y,z,s_u,s_v,s_p,x,y,ref_u,ref_v,u,v
Zone f=fepoint, n=289, e=512, et=quadrilateral, c=black
0.00000 0.00000 0.00000 0.0000000000000000 0.0000000000000000 1.8437702407721290 0.0000000000000000 0.0000000000000000 0.0000000000000000 0.0000000000000000 0.0000000000000000 0.0000000000000000 
0.062500000000000000 0.0000000000000000 0.0000000000000000 -1.5699538237713250e-06 -3.2356033234337409e-06 1.4981685418796646 1.2616503684687371e-06 0.0000000000000000 0.062500000000000000 0.0000000000000000 0.062498430046176230 -3.2356033234337409e-06 
0.062500000000000000 0.062500000000000000 0.0000000000000000 -3.8021938201106684e-07 -2.0511376007726475e-06 1.5369152947966427 7.2892998028187534e-07 3.4796784199463804e-07 0.062500000000000000 0.062500000000000000 0.062499619780617986 0.062497948862399226 
0.0000000000000000 0.062500000000000000 0.0000000000000000 0.0000000000000000 0.0000000000000000 1.6081730659065121 0.0000000000000000 9.9159840265979958e-07 0.0000000000000000 0.062500000000000000 0.0000000000000000 0.062500000000000000 
0.12500000000000000 0.0000000000000000 0.0000000000000000 -2.6292434466539476e-06 -5.1425529356161612e-06 1.0997163166878579 4.4908577983735713e-07 0.0000000000000000 0.12500000000000000 0.0000000000000000 0.12499737075655333 -5.1425529356161612e-06 
0.12500000000000000 0.062500000000000000 0.0000000000000000 -1.3202058726688926e-06 -4.2077651361749542e-06 1.1780422251809559 4.5878309622775635e-07 -1.5007750947211594e-07 0.12500000000000000 0.062500000000000000 0.12499867979412733 0.062495792234863824 
0.18750000000000000 0.0000000000000000 0.0000000000000000 -3.4730430031794374e-06 -6.8075973821914039e-06 0.85784329462337139 3.1802548152233167e-07 0.0000000000000000 0.18750000000000000 0.0000000000000000 0.18749652695699681 -6.8075973821914039e-06 
0.18750000000000000 0.062500000000000000 0.0000000000000000 -2.1199662817572962e-06 -6.0480784066056501e-06 0.90936284215646312 3.5128484161992122e-07 -3.9172399498533126e-08 0.18750000000000000 0.062500000000000000 0.18749788003371826 0.062493951921593398 
0.25000000000000000 0.0000000000000000 0.0000000000000000 -4.1700850018619071e-06 -8.4068961463087072e-06 0.69134158164694126 2.3557733071355191e-07 0.0000000000000000 0.25000000000000000 0.0000000000000000 0.24999582991499814 -8.4068961463087072e-06 
0.25000000000000000 0.062500000000000000 0.0000000000000000 -2.7919975282078005e-06 -7.7807206168023733e-06 0.72677246703749565 2.4093858077799862e-07 -2.6271499742480594e-08 0.25000000000000000 0.062500000000000000 0.24999720800247180 0.062492219279383199 
0.31250000000000000 0.0000000000000000 0.0000000000000000 -4.7464545675294204e-06 -9.9866395242449035e-06 0.56213872692900735 1.9386047335590849e-07 0.0000000000000000 0.31250000000000000 0.0000000000000000 0.31249525354543245 -9.9866395242449035e-06 
0.31250000000000000 0.062500000000000000 0.0000000000000000 -3.3519493521948734e-06 -9.4716272845546655e-06 0.59066127020743531 1.9287647392225250e-07 -1.8214404171087467e-08 0.31250000000000000 0.062500000000000000 0.31249664805064775 0.062490528372715452 
0.37500000000000000 0.0000000000000000 0.0000000000000000 -5.2160683613430812e-06 -1.1557885908913438e-05 0.45419439114281507 1.6808731651736695e-07 0.0000000000000000 0.37500000000000000 0.0000000000000000 0.37499478393163860 -1.1557885908913438e-05 
0.37500000000000000 0.062500000000000000 0.0000000000000000 -3.8122575141644143e-06 -1.1140089515766825e-05 0.48046563167512185 1.6168199950251299e-07 -2.1732452484362504e-08 0.37500000000000000 0.062500000000000000 0.37499618774248583 0.062488859910484230 
0.43750000000000000 0.0000000000000000 0.0000000000000000 -5.5891235133010267e-06 -1.3119008295859906e-05 0.36082873462828347 1.4804989876672301e-07 0.0000000000000000 0.43750000000000000 0.0000000000000000 0.43749441087648672 -1.3119008295859906e-05 
0.43750000000000000 0.062500000000000000 0.0000000000000000 -4.1834111667211161e-06 -1.2787744361478705e-05 0.38684947652920060 1.3942746365532896e-07 -2.9337853646105834e-08 0.43750000000000000 0.062500000000000000 0.43749581658883324 0.062487212255638525 
0.50000000000000000 0.0000000000000000 0.0000000000000000 -5.8749601285099789e-06 -1.4663389293082606e-05 0.27938107640332965 1.2996991858342328e-07 0.0000000000000000 0.50000000000000000 0.0000000000000000 0.49999412503987156 -1.4663389293082606e-05 
0.50000000000000000 0.062500000000000000 0.0000000000000000 -4.4749266821299375e-06 -1.4409108024880537e-05 0.30575762068795925 1.2096938720601046e-07 -3.8130040247756572e-08 0.50000000000000000 0.062500000000000000 0.49999552507331785 0.062485590891975119 
0.56250000000000000 0.0000000000000000 0.0000000000000000 -6.0831414426468660e-06 -1.6182725099680885e-05 0.20891594866803578 1.1216180395949859e-07 0.0000000000000000 0.56250000000000000 0.0000000000000000 0.56249391685855732 -1.6182725099680885e-05 
0.56250000000000000 0.062500000000000000 0.0000000000000000 -4.6959447611349707e-06 -1.5996079118167805e-05 0.23549457080377831 1.0405159641173569e-07 -4.6230280251268579e-08 0.56250000000000000 0.062500000000000000 0.56249530405523884 0.062484003920881832 
0.62500000000000000 0.0000000000000000 0.0000000000000000 -6.2239028167798640e-06 -1.7668738680456417e-05 0.14921411566662723 9.3915115850057687e-08 0.0000000000000000 0.62500000000000000 0.0000000000000000 0.62499377609718321 -1.7668738680456417e-05 
0.62500000000000000 0.062500000000000000 0.0000000000000000 -4.8555796029440539e-06 -1.7540163218229661e-05 0.17538077308218555 8.7754952129449906e-08 -5.2377934857315530e-08 0.62500000000000000 0.062500000000000000 0.62499514442039705 0.062482459836781780 
0.68750000000000000 0.0000000000000000 0.0000000000000000 -6.3083773170440154e-06 -1.9114284920109577e-05 0.10029198821148816 7.5192500111240033e-08 0.0000000000000000 0.68750000000000000 0.0000000000000000 0.68749369162268292 -1.9114284920109577e-05 
0.68750000000000000 0.062500000000000000 0.0000000000000000 -4.9631309651837803e-06 -1.9033794816246275e-05 0.12510989316652762 7.1903174911732951e-08 -5.5547294519181740e-08 0.68750000000000000 0.062500000000000000 0.68749503686903479 0.062480966205183751 
0.75000000000000000 0.0000000000000000 0.0000000000000000 -6.3487374038554763e-06 -2.0514306948156386e-05 0.062126988923573885 5.5718005440867647e-08 0.0000000000000000 0.75000000000000000 0.0000000000000000 0.74999365126259609 -2.0514306948156386e-05 
0.75000000000000000 0.062500000000000000 0.0000000000000000 -5.0282314792035970e-06 -2.0471386043679578e-05 0.084409480159772607 5.6458025530059871e-08 -5.4818974636110098e-08 0.75000000000000000 0.062500000000000000 0.74999497176852081 0.062479528613956330 
0.81250000000000000 0.0000000000000000 0.0000000000000000 -6.3582529312130756e-06 -2.1866929694606653e-05 0.034466884943348611 3.7417517026255433e-08 0.0000000000000000 0.81250000000000000 0.0000000000000000 0.81249364174706884 -2.1866929694606653e-05 
0.81250000000000000 0.062500000000000000 0.0000000000000000 -5.0609738497497790e-06 -2.1850473175624834e-05 0.052855705680850316 4.2712530190238851e-08 -4.9265052096489614e-08 0.81250000000000000 0.062500000000000000 0.81249493902615022 0.062478149526824379 
0.87500000000000000 0.0000000000000000 0.0000000000000000 -6.3511097321023768e-06 -2.3174866698808650e-05 0.016645568728961922 1.7543900850569600e-08 0.0000000000000000 0.87500000000000000 0.0000000000000000 0.87499364889026798 -2.3174866698808650e-05 
0.87500000000000000 0.062500000000000000 0.0000000000000000 -5.0720290611473475e-06 -2.3173231582800950e-05 0.029810900583288918 2.8288562871066791e-08 -3.8435166105471384e-08 0.87500000000000000 0.062500000000000000 0.87499492797093870 0.062476826768417197 
0.93750000000000000 0.0000000000000000 0.0000000000000000 -6.3414749123112217e-06 -2.4446948508514522e-05 0.0073421006886565457 6.2348717183394848e-09 0.0000000000000000 0.93750000000000000 0.0000000000000000 0.93749365852508770 -2.4446948508514522e-05 
0.93750000000000000 0.062500000000000000 0.0000000000000000 -5.0726936497382399e-06 -2.4448540152311649e-05 0.014557639396058237 2.3259567119153745e-08 -2.3043304227561937e-08 0.93750000000000000 0.062500000000000000 0.93749492730635031 0.062475551459847685 
1.0000000000000000 0.0000000000000000 0.0000000000000000 -6.3392207518520675e-06 -2.5696517899036945e-05 0.0040272833367679664 0.0000000000000000 0.0000000000000000 1.0000000000000000 0.0000000000000000 0.99999366077924812 -2.5696517899036945e-05 
1.0000000000000000 0.062500000000000000 0.0000000000000000 -5.0743336638908462e-06 -2.5694298940475650e-05 0.0073588044912887840 0.0000000000000000 -6.3896725396942191e-09 1.0000000000000000 0.062500000000000000 0.99999492566633608 0.062474305701059524 
0.062500000000000000 0.12500000000000000 0.0000000000000000 -1.7203230358533354e-07 -1.6078230690412814e-06 1.2746319611470716 9.1095125975040775e-08 4.4472231565042883e-07 0.062500000000000000 0.12500000000000000 0.062499827967696424 0.12499839217693097 
0.0000000000000000 0.12500000000000000 0.0000000000000000 0.0000000000000000 0.0000000000000000 1.2406715176525502 0.0000000000000000 5.8090333482316456e-07 0.0000000000000000 0.12500000000000000 0.0000000000000000 0.12500000000000000 
0.12500000000000000 0.12500000000000000 0.0000000000000000 -6.1320446527470105e-07 -3.4519832124874042e-06 1.1123207327699685 3.7427404258600077e-07 2.5802865307111564e-07 0.12500000000000000 0.12500000000000000 0.12499938679553473 0.12499654801678751 
0.18750000000000000 0.12500000000000000 0.0000000000000000 -1.2205094484813224e-06 -5.3663969102393944e-06 0.89194242347276509 3.3731006516846931e-07 9.5788614557248736e-08 0.18750000000000000 0.12500000000000000 0.18749877949055152 0.12499463360308978 
0.25000000000000000 0.12500000000000000 0.0000000000000000 -1.7832667396751607e-06 -7.1999919488287452e-06 0.71595471187002435 2.3324327433647471e-07 5.3050952654831557e-08 0.25000000000000000 0.12500000000000000 0.24999821673326036 0.12499280000805117 
0.31250000000000000 0.12500000000000000 0.0000000000000000 -2.2713329538981973e-06 -8.9867550609697266e-06 0.58372004828395496 1.8440793680073121e-07 3.8040651202146022e-08 0.31250000000000000 0.12500000000000000 0.31249772866704612 0.12499101324493901 
0.37500000000000000 0.12500000000000000 0.0000000000000000 -2.6811486104624580e-06 -1.0742363333592316e-05 0.47917256363888505 1.5009112090207850e-07 2.1826269359498024e-08 0.37500000000000000 0.12500000000000000 0.37499731885138954 0.12498925763666642 
0.43750000000000000 0.12500000000000000 0.0000000000000000 -3.0163155439048760e-06 -1.2468500462723300e-05 0.39227073770789983 1.2778615103508455e-07 6.7225662627611857e-09 0.43750000000000000 0.12500000000000000 0.43749698368445605 0.12498753149953727 
0.50000000000000000 0.12500000000000000 0.0000000000000000 -3.2827686564062048e-06 -1.4160027301121042e-05 0.31794610421021186 1.1034822747377511e-07 -7.6087112244918843e-09 0.50000000000000000 0.12500000000000000 0.49999671723134359 0.12498583997269887 
0.56250000000000000 0.12500000000000000 0.0000000000000000 -3.4872724470427690e-06 -1.5809033805378324e-05 0.25374902280163020 9.5390834986171400e-08 -2.0242314614591639e-08 0.56250000000000000 0.12500000000000000 0.56249651272755308 0.12498419096619462 
0.62500000000000000 0.12500000000000000 0.0000000000000000 -3.6369207824563615e-06 -1.7407049100633503e-05 0.19844492315663609 8.1770973183767099e-08 -3.0521798492442458e-08 0.62500000000000000 0.12500000000000000 0.62499636307921758 0.12498259295089938 
0.68750000000000000 0.12500000000000000 0.0000000000000000 -3.7390129194853563e-06 -1.8946375015195290e-05 0.15126905800016713 6.9269957366553985e-08 -3.7825624868412717e-08 0.68750000000000000 0.12500000000000000 0.68749626098708039 0.12498105362498481 
0.75000000000000000 0.12500000000000000 0.0000000000000000 -3.8011296356456758e-06 -2.0421092905412831e-05 0.11153190450854389 5.7730442664618364e-08 -4.1603987869926229e-08 0.75000000000000000 0.12500000000000000 0.74999619887036439 0.12497957890709459 
0.81250000000000000 0.12500000000000000 0.0000000000000000 -3.8313950362516879e-06 -2.1828085352234420e-05 0.078447745894571874 4.8572183074068864e-08 -4.1212350390194083e-08 0.81250000000000000 0.12500000000000000 0.81249616860496376 0.12497817191464776 
0.87500000000000000 0.12500000000000000 0.0000000000000000 -3.8389743563370536e-06 -2.3168326915581983e-05 0.051211076284071878 3.7836895001161553e-08 -3.6677804496381692e-08 0.87500000000000000 0.12500000000000000 0.87499616102564370 0.12497683167308442 
0.93750000000000000 0.12500000000000000 0.0000000000000000 -3.8348887644532243e-06 -2.4448698727378332e-05 0.029635128834383375 3.7887316974222450e-08 -2.7375075601247944e-08 0.93750000000000000 0.12500000000000000 0.93749616511123557 0.12497555130127262 
1.0000000000000000 0.12500000000000000 0.0000000000000000 -3.8331593775231931e-06 -2.5684866452623926e-05 0.016639773491429866 0.0000000000000000 -1.8009760737241741e-08 1.0000000000000000 0.12500000000000000 0.99999616684062242 0.12497431513354736 
0.062500000000000000 0.18750000000000000 0.0000000000000000 -9.1607489014643778e-08 -1.3842298602454794e-06 0.99829330822766782 1.5424836590684300e-08 4.0693828440021188e-07 0.062500000000000000 0.18750000000000000 0.062499908392510982 0.18749861577013974 
0.0000000000000000 0.18750000000000000 0.0000000000000000 0.0000000000000000 0.0000000000000000 0.94410705976572074 0.0000000000000000 4.5896171827818326e-07 0.0000000000000000 0.18750000000000000 0.0000000000000000 0.18750000000000000 
0.12500000000000000 0.18750000000000000 0.0000000000000000 -3.2231913120709306e-07 -3.0420117709778915e-06 0.93537842624606782 1.8217627087328282e-07 3.2036027912396909e-07 0.12500000000000000 0.18750000000000000 0.12499967768086880 0.18749695798822905 
0.18750000000000000 0.18750000000000000 0.0000000000000000 -6.7187262753907728e-07 -4.8594298768442174e-06 0.80887456100296840 2.2692945696054764e-07 1.7666671408499999e-07 0.18750000000000000 0.18750000000000000 0.18749932812737247 0.18749514057012315 
0.25000000000000000 0.18750000000000000 0.0000000000000000 -1.0754390998608728e-06 -6.7266721094171111e-06 0.67093065076102754 2.0356809243940343e-07 9.6153963842699752e-08 0.25000000000000000 0.18750000000000000 0.24999892456090014 0.18749327332789059 
0.31250000000000000 0.18750000000000000 0.0000000000000000 -1.4535956096005298e-06 -8.5764000645253908e-06 0.55512255823441903 1.6365839445591873e-07 6.2035502940598662e-08 0.31250000000000000 0.18750000000000000 0.31249854640439040 0.18749142359993545 
0.37500000000000000 0.18750000000000000 0.0000000000000000 -1.7820115047725411e-06 -1.0399719227407352e-05 0.46202798419304697 1.3225591415901024e-07 3.8493354010108921e-08 0.37500000000000000 0.18750000000000000 0.37499821798849525 0.18748960028077263 
0.43750000000000000 0.18750000000000000 0.0000000000000000 -2.0543317369130739e-06 -1.2191095749903802e-05 0.38537570397894688 1.1125112163823093e-07 1.9641837852168405e-08 0.43750000000000000 0.18750000000000000 0.43749794566826311 0.18748780890425010 
0.50000000000000000 0.18750000000000000 0.0000000000000000 -2.2711397562393770e-06 -1.3942962032943647e-05 0.32050682443598211 9.5243712569435068e-08 2.6089606272109573e-09 0.50000000000000000 0.18750000000000000 0.49999772886024374 0.18748605703796706 
0.56250000000000000 0.18750000000000000 0.0000000000000000 -2.4359047377454262e-06 -1.5646515019605039e-05 0.26470660098539112 8.2364306034147201e-08 -1.2354055426471142e-08 0.56250000000000000 0.18750000000000000 0.56249756409526241 0.18748435348498038 
0.62500000000000000 0.18750000000000000 0.0000000000000000 -2.5533448911055230e-06 -1.7292904499902626e-05 0.21639933221143801 7.1359445849976132e-08 -2.4997288521897694e-08 0.62500000000000000 0.18750000000000000 0.62499744665510892 0.18748270709550011 
0.68750000000000000 0.18750000000000000 0.0000000000000000 -2.6287991442628987e-06 -1.8874144699727345e-05 0.17450060550230026 6.1974975178102785e-08 -3.4932824590586188e-08 0.68750000000000000 0.18750000000000000 0.68749737120085574 0.18748112585530027 
0.75000000000000000 0.18750000000000000 0.0000000000000000 -2.6681264226365832e-06 -2.0383835935067299e-05 0.13802348672052903 5.4034888167901310e-08 -4.1838250187624820e-08 0.75000000000000000 0.18750000000000000 0.74999733187357720 0.18747961616406494 
0.81250000000000000 0.18750000000000000 0.0000000000000000 -2.6779982575829865e-06 -2.1817861962563345e-05 0.10591282047383953 4.8891860593464278e-08 -4.5250617349969105e-08 0.81250000000000000 0.18750000000000000 0.81249732200174229 0.18747818213803744 
0.87500000000000000 0.18750000000000000 0.0000000000000000 -2.6665948123222171e-06 -2.3175212470085401e-05 0.077190606289486180 4.2063882782334977e-08 -4.5321368438998493e-08 0.87500000000000000 0.18750000000000000 0.87499733340518759 0.18747682478752992 
0.93750000000000000 0.18750000000000000 0.0000000000000000 -2.6447867289530732e-06 -2.4459092798730405e-05 0.051909735124676587 4.7049514841873986e-08 -4.0503537075119241e-08 0.93750000000000000 0.18750000000000000 0.93749735521327093 0.18747554090720128 
1.0000000000000000 0.18750000000000000 0.0000000000000000 -2.6278563582619210e-06 -2.5678722715745401e-05 0.034211328483568344 0.0000000000000000 -3.7516222054413669e-08 1.0000000000000000 0.18750000000000000 0.99999737214364171 0.18747432127728425 
0.062500000000000000 0.25000000000000000 0.0000000000000000 -5.0403042431034260e-08 -1.2696275064485433e-06 0.76396501987453347 -3.8332687043239609e-08 3.3580556793295973e-07 0.062500000000000000 0.25000000000000000 0.062499949596957573 0.24999873037249354 
0.0000000000000000 0.25000000000000000 0.0000000000000000 0.0000000000000000 0.0000000000000000 0.70599223539697264 0.0000000000000000 3.6661941034989127e-07 0.0000000000000000 0.25000000000000000 0.0000000000000000 0.25000000000000000 
0.12500000000000000 0.25000000000000000 0.0000000000000000 -1.6829855757820798e-07 -2.8165907213218788e-06 0.74449466396354813 8.7457387944234505e-08 2.9338069077184407e-07 0.12500000000000000 0.25000000000000000 0.12499983170144242 0.24999718340927868 
0.18750000000000000 0.25000000000000000 0.0000000000000000 -3.5726668044968783e-07 -4.5538263303008508e-06 0.68007105474277674 1.2525149288830505e-07 2.2107438776169971e-07 0.18750000000000000 0.25000000000000000 0.18749964273331954 0.24999544617366973 
0.25000000000000000 0.25000000000000000 0.0000000000000000 -5.9553411341238014e-07 -6.3943214885204974e-06 0.59362561839730277 1.4509728565670705e-07 1.4711192989688728e-07 0.25000000000000000 0.25000000000000000 0.24999940446588662 0.24999360567851148 
0.31250000000000000 0.25000000000000000 0.0000000000000000 -8.4545090669044736e-07 -8.2697941613763870e-06 0.50688188741364459 1.2938604825906532e-07 9.2297085078926927e-08 0.31250000000000000 0.25000000000000000 0.31249915454909333 0.24999173020583862 
0.37500000000000000 0.25000000000000000 0.0000000000000000 -1.0726675559336889e-06 -1.0137636796789116e-05 0.43159205112545318 1.0866550830164002e-07 5.9270229990585614e-08 0.37500000000000000 0.25000000000000000 0.37499892733244405 0.24998986236320322 
0.43750000000000000 0.25000000000000000 0.0000000000000000 -1.2628364323797251e-06 -1.1978461898818518e-05 0.36840755219962334 9.1553093586392418e-08 3.5070440203187743e-08 0.43750000000000000 0.25000000000000000 0.43749873716356763 0.24998802153810118 
0.50000000000000000 0.25000000000000000 0.0000000000000000 -1.4115111399253272e-06 -1.3779069756650590e-05 0.31494953006794685 7.8146485819028664e-08 1.5130026059603110e-08 0.50000000000000000 0.25000000000000000 0.49999858848886009 0.24998622093024334 
0.56250000000000000 0.25000000000000000 0.0000000000000000 -1.5189179739366997e-06 -1.5528275391676766e-05 0.26906053038504718 6.7625257969488200e-08 -1.8937501229147968e-09 0.56250000000000000 0.25000000000000000 0.56249848108202605 0.24998447172460833 
0.62500000000000000 0.25000000000000000 0.0000000000000000 -1.5874886421163014e-06 -1.7216155670177692e-05 0.22920764222022696 5.9063954371562011e-08 -1.6477073295093996e-08 0.62500000000000000 0.25000000000000000 0.62499841251135801 0.24998278384432981 
0.68750000000000000 0.25000000000000000 0.0000000000000000 -1.6207727073626434e-06 -1.8834090110166792e-05 0.19421621557798530 5.2287740789335023e-08 -2.8659656036941760e-08 0.68750000000000000 0.25000000000000000 0.68749837922729273 0.24998116590988984 
0.75000000000000000 0.25000000000000000 0.0000000000000000 -1.6231193618138555e-06 -2.0374956930141821e-05 0.16297944810161788 4.7152097780176887e-08 -3.8449597060079694e-08 0.75000000000000000 0.25000000000000000 0.74999837688063831 0.24997962504306989 
0.81250000000000000 0.25000000000000000 0.0000000000000000 -1.5999027032057857e-06 -2.1833353394213628e-05 0.13431222482297095 4.4938212925717103e-08 -4.5648704396044600e-08 0.81250000000000000 0.25000000000000000 0.81249840009729690 0.24997816664660580 
0.87500000000000000 0.25000000000000000 0.0000000000000000 -1.5582436351176643e-06 -2.3205826239125724e-05 0.10710213910586679 4.1243134238087565e-08 -5.0592212402348434e-08 0.87500000000000000 0.25000000000000000 0.87499844175636488 0.24997679417376087 
0.93750000000000000 0.25000000000000000 0.0000000000000000 -1.5082611267672687e-06 -2.4491118713582662e-05 0.081353908369527175 4.9606818493307142e-08 -5.1383265813332371e-08 0.93750000000000000 0.25000000000000000 0.93749849173887323 0.24997550888128642 
1.0000000000000000 0.25000000000000000 0.0000000000000000 -1.4647830575406294e-06 -2.5690497396226925e-05 0.060807412457795078 0.0000000000000000 -5.3911649610251144e-08 1.0000000000000000 0.25000000000000000 0.99999853521694249 0.24997430950260377 
0.062500000000000000 0.31250000000000000 0.0000000000000000 -2.5814051377473561e-08 -1.2171175570300354e-06 0.56531263940904208 -6.3219283154037030e-08 2.9276736775229308e-07 0.062500000000000000 0.31250000000000000 0.062499974185948624 0.31249878288244298 
0.0000000000000000 0.31250000000000000 0.0000000000000000 0.0000000000000000 0.0000000000000000 0.50604440667802109 0.0000000000000000 3.1121912415328390e-07 0.0000000000000000 0.31250000000000000 0.0000000000000000 0.31250000000000000 
0.12500000000000000 0.31250000000000000 0.0000000000000000 -7.4383972146298277e-08 -2.7045130240793504e-06 0.56953104433800694 3.8350290417149111e-08 2.6514546172434267e-07 0.12500000000000000 0.31250000000000000 0.12499992561602787 0.31249729548697586 
0.18750000000000000 0.31250000000000000 0.0000000000000000 -1.5660673034778828e-07 -4.3910971756177841e-06 0.54201132437211641 6.1586923724725604e-08 2.1701803805688136e-07 0.18750000000000000 0.31250000000000000 0.18749984339326964 0.31249560890282441 
0.25000000000000000 0.31250000000000000 0.0000000000000000 -2.6766466565260234e-07 -6.2039466372249733e-06 0.49589517585688214 8.3174081712791305e-08 1.6341133329629249e-07 0.25000000000000000 0.31250000000000000 0.24999973233533437 0.31249379605336275 
0.31250000000000000 0.31250000000000000 0.0000000000000000 -3.9178991645725978e-07 -8.0802831135122656e-06 0.44212066943296247 8.6124053175506872e-08 1.1339587437493757e-07 0.31250000000000000 0.31250000000000000 0.31249960821008355 0.31249191971688650 
0.37500000000000000 0.31250000000000000 0.0000000000000000 -5.0962229837284617e-07 -9.9720271383406304e-06 0.38963572660135787 7.8921622854559962e-08 7.5071837802156774e-08 0.37500000000000000 0.31250000000000000 0.37499949037770164 0.31249002797286168 
0.43750000000000000 0.31250000000000000 0.0000000000000000 -6.0597190757263382e-07 -1.1846705724860610e-05 0.34302233116306341 6.8337086371330343e-08 4.6596354153607436e-08 0.43750000000000000 0.31250000000000000 0.43749939402809240 0.31248815329427515 
0.50000000000000000 0.31250000000000000 0.0000000000000000 -6.7385762844365516e-07 -1.3683950118315854e-05 0.30281060581005476 5.8835785706844858e-08 2.4058552039593132e-08 0.50000000000000000 0.31250000000000000 0.49999932614237158 0.31248631604988170 
0.56250000000000000 0.31250000000000000 0.0000000000000000 -7.1130098096308835e-07 -1.5469098458797292e-05 0.26811406940383836 5.1041726029915993e-08 5.1900751427141986e-09 0.56250000000000000 0.31250000000000000 0.56249928869901911 0.31248453090154121 
0.62500000000000000 0.31250000000000000 0.0000000000000000 -7.1897807646699637e-07 -1.7190549977304407e-05 0.23787631141682283 4.4821328437246137e-08 -1.1025809654670659e-08 0.62500000000000000 0.31250000000000000 0.62499928102192348 0.31248280945002271 
0.68750000000000000 0.31250000000000000 0.0000000000000000 -6.9897147031490520e-07 -1.8838738980595352e-05 0.21110050524282362 4.0204581790682992e-08 -2.5046062316273422e-08 0.68750000000000000 0.31250000000000000 0.68749930102852963 0.31248116126101938 
0.75000000000000000 0.31250000000000000 0.0000000000000000 -6.5430198450126036e-07 -2.0405663120130660e-05 0.18675445943414667 3.7169187761017681e-08 -3.7179712244602158e-08 0.75000000000000000 0.31250000000000000 0.74999934569801552 0.31247959433687988 
0.81250000000000000 0.31250000000000000 0.0000000000000000 -5.8904444738270904e-07 -2.1884549119821305e-05 0.16367246051166792 3.6911693005575685e-08 -4.7484156502032392e-08 0.81250000000000000 0.31250000000000000 0.81249941095555267 0.31247811545088017 
0.87500000000000000 0.31250000000000000 0.0000000000000000 -5.0895757896168974e-07 -2.3269467297496637e-05 0.14066899788684403 3.5607746112900196e-08 -5.6440327822724660e-08 0.87500000000000000 0.31250000000000000 0.87499949104242092 0.31247673053270253 
0.93750000000000000 0.31250000000000000 0.0000000000000000 -4.2261605881021354e-07 -2.4554751630668742e-05 0.11746758341770186 4.6117643775878711e-08 -6.1917274173561166e-08 0.93750000000000000 0.31250000000000000 0.93749957738394130 0.31247544524836934 
1.0000000000000000 0.31250000000000000 0.0000000000000000 -3.4286225660946987e-07 -2.5734040103066401e-05 0.096049278792179768 0.0000000000000000 -6.9200033507569417e-08 1.0000000000000000 0.31250000000000000 0.99999965713774353 0.31247426595989691 
0.062500000000000000 0.37500000000000000 0.0000000000000000 -9.3292658884061959e-09 -1.2035004089384469e-06 0.39093265650196390 -8.2367027111976423e-08 2.6386999949864723e-07 0.062500000000000000 0.37500000000000000 0.062499990670734105 0.37499879649959106 
0.0000000000000000 0.37500000000000000 0.0000000000000000 0.0000000000000000 0.0000000000000000 0.32967593479599849 0.0000000000000000 2.7902827501192931e-07 0.0000000000000000 0.37500000000000000 0.0000000000000000 0.37500000000000000 
0.12500000000000000 0.37500000000000000 0.0000000000000000 -1.0084672280354051e-08 -2.6688130094668213e-06 0.41175322152535160 2.6013089506880820e-09 2.4049882110982028e-07 0.12500000000000000 0.37500000000000000 0.12499998991532772 0.37499733118699052 
0.18750000000000000 0.37500000000000000 0.0000000000000000 -1.4397230718060454e-08 -4.3331652634806007e-06 0.40936305836621273 1.6416830683971789e-08 2.0449206221504948e-07 0.18750000000000000 0.37500000000000000 0.18749998560276929 0.37499566683473651 
0.25000000000000000 0.37500000000000000 0.0000000000000000 -2.5472299413229947e-08 -6.1316435715122301e-06 0.39265196306371269 3.5841315347587746e-08 1.6416235726786494e-07 0.25000000000000000 0.37500000000000000 0.24999997452770059 0.37499386835642851 
0.31250000000000000 0.37500000000000000 0.0000000000000000 -3.9722658513120371e-08 -8.0063300588982686e-06 0.36750133062292861 4.3748662418198875e-08 1.2297929720602358e-07 0.31250000000000000 0.37500000000000000 0.31249996027734150 0.37499199366994113 
0.37500000000000000 0.37500000000000000 0.0000000000000000 -4.9689455008999095e-08 -9.9096882254162279e-06 0.33893940885630869 4.5587273463239712e-08 8.5972711960952654e-08 0.37500000000000000 0.37500000000000000 0.37499995031054500 0.37499009031177460 
0.43750000000000000 0.37500000000000000 0.0000000000000000 -4.7340010709762724e-08 -1.1805558239613608e-05 0.31092026592650163 4.2337173463672826e-08 5.5568382283208035e-08 0.43750000000000000 0.37500000000000000 0.43749995265998937 0.37498819444176040 
0.50000000000000000 0.37500000000000000 0.0000000000000000 -2.6962610426400461e-08 -1.3668152825454277e-05 0.28550128800276497 3.7573165731935885e-08 3.1072933349602517e-08 0.50000000000000000 0.37500000000000000 0.49999997303738958 0.37498633184717450 
0.56250000000000000 0.37500000000000000 0.0000000000000000 1.3838033181181314e-08 -1.5479402754598378e-05 0.26311460092050959 3.2942089410470118e-08 1.0658255304755626e-08 0.56250000000000000 0.37500000000000000 0.56250001383803305 0.37498452059724535 
0.62500000000000000 0.37500000000000000 0.0000000000000000 7.5242919943898449e-08 -1.7225879480169137e-05 0.24345100984277632 2.9088710228323065e-08 -6.8794894084488257e-09 0.62500000000000000 0.37500000000000000 0.62500007524291989 0.37498277412051984 
0.68750000000000000 0.37500000000000000 0.0000000000000000 1.5616509759688146e-07 -1.8896992453032801e-05 0.22592444645567689 2.6329178248635759e-08 -2.2311008228537638e-08 0.68750000000000000 0.37500000000000000 0.68750015616509763 0.37498110300754695 
0.75000000000000000 0.37500000000000000 0.0000000000000000 2.5470387656746126e-07 -2.0483895890287937e-05 0.20976066978556221 2.4841587991792842e-08 -3.6200881783892073e-08 0.75000000000000000 0.37500000000000000 0.75000025470387655 0.37497951610410979 
0.81250000000000000 0.37500000000000000 0.0000000000000000 3.6811845066905473e-07 -2.1978622454367291e-05 0.19395754981765689 2.5734096443851609e-08 -4.8855393705212950e-08 0.81250000000000000 0.37500000000000000 0.81250036811845072 0.37497802137754560 
0.87500000000000000 0.37500000000000000 0.0000000000000000 4.9234916746321583e-07 -2.3373140236844928e-05 0.17732936289007276 2.6163665374783380e-08 -6.0850462623356733e-08 0.87500000000000000 0.37500000000000000 0.87500049234916755 0.37497662685976313 