# For a description of the Tecplot format see the Tecplot User's guide.
#
Variables=x,y,z,s_u,s_v,s_p,x,y,ref_u,ref_v,u,v
Zone f=fepoint, n=4225, e=8192, et=quadrilateral, c=black
0.00000 0.00000 0.00000 0.0000000000000000 0.0000000000000000 3.3745642036415013 0.0000000000000000 0.0000000000000000 0.0000000000000000 0.0000000000000000 0.0000000000000000 0.0000000000000000 
0.015625000000000000 0.0000000000000000 0.0000000000000000 -6.9621875649284661e-07 -1.5107087593731016e-06 2.8270984756284974 7.2402389388406287e-06 0.0000000000000000 0.015625000000000000 0.0000000000000000 0.015624303781243506 -1.5107087593731016e-06 
0.015625000000000000 0.015625000000000000 0.0000000000000000 -1.8024543970006457e-07 -9.7262398062020406e-07 2.9393909961698714 4.7141383885481898e-06 1.4244584437457380e-06 0.015625000000000000 0.015625000000000000 0.015624819754560300 0.015624027376019379 
0.0000000000000000 0.015625000000000000 0.0000000000000000 0.0000000000000000 0.0000000000000000 3.1244014618566029 0.0000000000000000 4.2216177175284911e-06 0.0000000000000000 0.015625000000000000 0.0000000000000000 0.015625000000000000 
0.031250000000000000 0.0000000000000000 0.0000000000000000 -1.1485360551985466e-06 -2.3368046092015806e-06 2.2110225970097321 3.4760005827303470e-06 0.0000000000000000 0.031250000000000000 0.0000000000000000 0.031248851463944804 -2.3368046092015806e-06 
0.031250000000000000 0.015625000000000000 0.0000000000000000 -6.1920602305324234e-07 -1.9010501414147170e-06 2.3704223652453549 2.8161691963807979e-06 -1.1884389638080187e-06 0.031250000000000000 0.015625000000000000 0.031249380793976943 0.015623098949858584 
0.046875000000000000 0.0000000000000000 0.0000000000000000 -1.5151218909723336e-06 -2.9830803291526976e-06 1.8180379642587987 1.9454936816772207e-06 0.0000000000000000 0.046875000000000000 0.0000000000000000 0.046873484878109030 -2.9830803291526976e-06 
0.046875000000000000 0.015625000000000000 0.0000000000000000 -1.0057600593608064e-06 -2.6130137880142753e-06 1.9429809796480033 2.1511781005861150e-06 -7.9969763294011142e-07 0.046875000000000000 0.015625000000000000 0.046873994239940646 0.015622386986211987 
0.062500000000000000 0.0000000000000000 0.0000000000000000 -1.8370713910462188e-06 -3.5470772944804946e-06 1.5735795681696050 1.2524737647192387e-06 0.0000000000000000 0.062500000000000000 0.0000000000000000 0.062498162928608957 -3.5470772944804946e-06 
0.062500000000000000 0.015625000000000000 0.0000000000000000 -1.3511445267098689e-06 -3.2190958639044031e-06 1.6627667682660785 1.4206033491925399e-06 -6.6655409666312084e-07 0.062500000000000000 0.015625000000000000 0.062498648855473293 0.015621780904136096 
0.078125000000000000 0.0000000000000000 0.0000000000000000 -2.1309714738321902e-06 -4.0632205018993652e-06 1.4094764651763765 8.5830859358321325e-07 0.0000000000000000 0.078125000000000000 0.0000000000000000 0.078122869028526165 -4.0632205018993652e-06 
0.078125000000000000 0.015625000000000000 0.0000000000000000 -1.6656530390282996e-06 -3.7645022229922867e-06 1.4737110508004383 9.9279132506062556e-07 -4.8168678663119678e-07 0.078125000000000000 0.015625000000000000 0.078123334346960963 0.015621235497777010 
0.093750000000000000 0.0000000000000000 0.0000000000000000 -2.4048036176268079e-06 -4.5484882179763474e-06 1.2913301735297436 6.3548500750140520e-07 0.0000000000000000 0.093750000000000000 0.0000000000000000 0.093747595196382372 -4.5484882179763474e-06 
0.093750000000000000 0.015625000000000000 0.0000000000000000 -1.9560759899913240e-06 -4.2716629108067680e-06 1.3389751531574909 7.3744385432629750e-07 -3.5908462768161071e-07 0.093750000000000000 0.015625000000000000 0.093748043924010024 0.015620728337089192 
0.10937500000000000 0.0000000000000000 0.0000000000000000 -2.6628857352388709e-06 -5.0126343679076974e-06 1.2005925605961270 5.0232397553102548e-07 0.0000000000000000 0.10937500000000000 0.0000000000000000 0.10937233711426476 -5.0126343679076974e-06 
0.10937500000000000 0.015625000000000000 0.0000000000000000 -2.2270318928951759e-06 -4.7532130624997594e-06 1.2370347780490152 5.7747873523054471e-07 -2.6876792329868020e-07 0.10937500000000000 0.015625000000000000 0.10937277296810710 0.015620246786937500 
0.12500000000000000 0.0000000000000000 0.0000000000000000 -2.9077860951438524e-06 -5.4618437861575161e-06 1.1269872890426822 4.1810518700994712e-07 0.0000000000000000 0.12500000000000000 0.0000000000000000 0.12499709221390486 -5.4618437861575161e-06 
0.12500000000000000 0.015625000000000000 0.0000000000000000 -2.4817341858362736e-06 -5.2169450707620046e-06 1.1556612561796662 4.7352589739264813e-07 -2.0328882210426902e-07 0.12500000000000000 0.015625000000000000 0.12499751826581416 0.015619783054929238 
0.14062500000000000 0.0000000000000000 0.0000000000000000 -3.1411476193791056e-06 -5.9002856859148088e-06 1.0646192765161393 3.6213656453559377e-07 0.0000000000000000 0.14062500000000000 0.0000000000000000 0.14062185885238063 -5.9002856859148088e-06 
0.14062500000000000 0.015625000000000000 0.0000000000000000 -2.7224662195267763e-06 -5.6679699472403161e-06 1.0877566235572262 4.0330925485700938e-07 -1.5498002580530820e-07 0.14062500000000000 0.015625000000000000 0.14062227753378045 0.015619332030052760 
0.15625000000000000 0.0000000000000000 0.0000000000000000 -3.3640857932676020e-06 -6.3308884887505368e-06 1.0099577041625605 3.2322390408522907e-07 0.0000000000000000 0.15625000000000000 0.0000000000000000 0.15624663591420673 -6.3308884887505368e-06 
0.15625000000000000 0.015625000000000000 0.0000000000000000 -2.9508854019458629e-06 -6.1097950047698458e-06 1.0290517571926290 3.5403139184174144e-07 -1.1884827130222475e-07 0.15625000000000000 0.015625000000000000 0.15624704911459805 0.015618890204995231 
0.17187500000000000 0.0000000000000000 0.0000000000000000 -3.5773955990933135e-06 -6.7557671273860993e-06 0.96079593118151008 2.9507386610478126e-07 0.0000000000000000 0.17187500000000000 0.0000000000000000 0.17187142260440091 -6.7557671273860993e-06 
0.17187500000000000 0.015625000000000000 0.0000000000000000 -3.1682194984843447e-06 -6.5449064550244268e-06 0.97687880991710807 3.1825677688016077e-07 -9.1540301424646963e-08 0.17187500000000000 0.015625000000000000 0.17187183178050150 0.015618455093544975 
0.18750000000000000 0.0000000000000000 0.0000000000000000 -3.7816667868518938e-06 -7.1764778292609367e-06 0.91569870518547791 2.7399622452873449e-07 0.0000000000000000 0.18750000000000000 0.0000000000000000 0.18749621833321314 -7.1764778292609367e-06 
0.18750000000000000 0.015625000000000000 0.0000000000000000 -3.3753964881156177e-06 -6.9751076305655616e-06 0.92950566818967750 2.9148842788972900e-07 -7.0766257497546524e-08 0.18750000000000000 0.015625000000000000 0.18749662460351188 0.015618024892369435 
0.20312500000000000 0.0000000000000000 0.0000000000000000 -3.9773520587572752e-06 -7.5941790158279093e-06 0.87369894444336493 2.5772899104730209e-07 0.0000000000000000 0.20312500000000000 0.0000000000000000 0.20312102264794127 -7.5941790158279093e-06 
0.20312500000000000 0.015625000000000000 0.0000000000000000 -3.5731319314260275e-06 -7.4017266018287312e-06 0.88576781682198735 2.7090854899821759e-07 -5.4929785413656789e-08 0.20312500000000000 0.015625000000000000 0.20312142686806858 0.015617598273398174 
0.21875000000000000 0.0000000000000000 0.0000000000000000 -4.1648095778577367e-06 -8.0097376181268419e-06 0.83412530459458301 2.4482740356936999e-07 0.0000000000000000 0.21875000000000000 0.0000000000000000 0.21874583519042215 -8.0097376181268419e-06 
0.21875000000000000 0.015625000000000000 0.0000000000000000 -3.7619887389515278e-06 -7.8257497548821774e-06 0.84485838079221498 2.5469044799873935e-07 -4.2890426563806424e-08 0.21875000000000000 0.015625000000000000 0.21874623801126106 0.015617174250245116 
0.23437500000000000 0.0000000000000000 0.0000000000000000 -4.3443307041431651e-06 -8.4238019228947392e-06 0.79650032662179371 2.3433351668369879e-07 0.0000000000000000 0.23437500000000000 0.0000000000000000 0.23437065566929585 -8.4238019228947392e-06 
0.23437500000000000 0.015625000000000000 0.0000000000000000 -3.9424187341286475e-06 -8.2479111801124315e-06 0.80620412498344807 2.4161132952051663e-07 -3.3814883126746716e-08 0.23437500000000000 0.015625000000000000 0.23437105758126586 0.015616752088819888 
0.25000000000000000 0.0000000000000000 0.0000000000000000 -4.5161588059404179e-06 -8.8368530154228689e-06 0.76047795948264552 2.2559089380224400e-07 0.0000000000000000 0.25000000000000000 0.0000000000000000 0.24999548384119405 -8.8368530154228689e-06 
0.25000000000000000 0.015625000000000000 0.0000000000000000 -4.1147920241474513e-06 -8.6687545267488190e-06 0.76938955098021877 2.3082894367716860e-07 -2.7081608422598821e-08 0.25000000000000000 0.015625000000000000 0.24999588520797586 0.015616331245473252 
0.26562500000000000 0.0000000000000000 0.0000000000000000 -4.6805024368014950e-06 -9.2492420543330802e-06 0.72580383232108636 2.1813683140688147e-07 0.0000000000000000 0.26562500000000000 0.0000000000000000 0.26562031949756321 -9.2492420543330802e-06 
0.26562500000000000 0.015625000000000000 0.0000000000000000 -4.2794180814603225e-06 -9.0886770530922914e-06 0.73410878509301547 2.2174844108201774e-07 -2.2218379234654258e-08 0.26562500000000000 0.015625000000000000 0.26562072058191855 0.015615911322946907 
0.28125000000000000 0.0000000000000000 0.0000000000000000 -4.8375448133009954e-06 -9.6612178914315257e-06 0.69228914196939073 2.1163732705334815e-07 0.0000000000000000 0.28125000000000000 0.0000000000000000 0.28124516245518671 -9.6612178914315257e-06 
0.28125000000000000 0.015625000000000000 0.0000000000000000 -4.4365611024413539e-06 -9.5079617900098687e-06 0.70013407229368252 2.1394047836099425e-07 -1.8860471314367860e-08 0.28125000000000000 0.015625000000000000 0.28124556343889756 0.015615492038209991 
0.29687500000000000 0.0000000000000000 0.0000000000000000 -4.9874507799817556e-06 -1.0072947945463581e-05 0.65979297138196058 2.0584644462740397e-07 0.0000000000000000 0.29687500000000000 0.0000000000000000 0.29687001254922002 -1.0072947945463581e-05 
0.29687500000000000 0.015625000000000000 0.0000000000000000 -4.5864513538376945e-06 -9.9268015441389279e-06 0.66729452645191012 2.0708932723179560e-07 -1.6722003663325113e-08 0.29687500000000000 0.015625000000000000 0.29687041354864618 0.015615073198455861 
0.31250000000000000 0.0000000000000000 0.0000000000000000 -5.1303720163566485e-06 -1.0484534257473085e-05 0.62820999824560764 2.0058008767714420e-07 0.0000000000000000 0.31250000000000000 0.0000000000000000 0.31249486962798362 -1.0484534257473085e-05 
0.31250000000000000 0.015625000000000000 0.0000000000000000 -4.7292936632180383e-06 -1.0345317160020227e-05 0.63546141705474646 2.0095906556918008e-07 -1.5575895833551279e-08 0.31250000000000000 0.015625000000000000 0.31249527070633670 0.015614654682839979 
0.32812500000000000 0.0000000000000000 0.0000000000000000 -5.2664509829672428e-06 -1.0896026036514440e-05 0.59746175219797060 1.9569856475184052e-07 0.0000000000000000 0.32812500000000000 0.0000000000000000 0.32811973354901702 -1.0896026036514440e-05 
0.32812500000000000 0.015625000000000000 0.0000000000000000 -4.8652738461684257e-06 -1.0763571654401414e-05 0.60453774417398798 1.9537098079460162e-07 -1.5239583915168432e-08 0.32812500000000000 0.015625000000000000 0.32812013472615381 0.015614236428345599 
0.34375000000000000 0.0000000000000000 0.0000000000000000 -5.3958239437746965e-06 -1.1307429603457284e-05 0.56749027100020388 1.9109468779725341e-07 0.0000000000000000 0.34375000000000000 0.0000000000000000 0.34374460417605618 -1.1307429603457284e-05 
0.34375000000000000 0.015625000000000000 0.0000000000000000 -4.9945636217620879e-06 -1.1181581324395971e-05 0.57445070168672963 1.9018811302050010e-07 -1.5564666531517883e-08 0.34375000000000000 0.015625000000000000 0.34374500543637826 0.015613818418675604 
0.35937500000000000 0.0000000000000000 0.0000000000000000 -5.5186233000033646e-06 -1.1718716374714192e-05 0.53825341752095435 1.8668545275303231e-07 0.0000000000000000 0.35937500000000000 0.0000000000000000 0.35936948137670005 -1.1718716374714192e-05 
0.35937500000000000 0.015625000000000000 0.0000000000000000 -5.1173244056645681e-06 -1.1599324598037753e-05 0.54514613237283327 1.8530445736977045e-07 -1.6429282675243520e-08 0.35937500000000000 0.015625000000000000 0.35936988267559439 0.015613400675401961 
0.37500000000000000 0.0000000000000000 0.0000000000000000 -5.6349794032947295e-06 -1.2129829347737584e-05 0.50972137131118089 1.8240609968087723e-07 0.0000000000000000 0.37500000000000000 0.0000000000000000 0.37499436502059669 -1.2129829347737584e-05 
0.37500000000000000 0.015625000000000000 0.0000000000000000 -5.2337102597742140e-06 -1.2016749173794117e-05 0.51658438616760416 1.8063727564098530e-07 -1.7732420031732456e-08 0.37500000000000000 0.015625000000000000 0.37499476628974021 0.015612983250826206 
0.39062500000000000 0.0000000000000000 0.0000000000000000 -5.7450219705734116e-06 -1.2540688426051435e-05 0.48187396698682677 1.7820579054936435e-07 0.0000000000000000 0.39062500000000000 0.0000000000000000 0.39061925497802941 -1.2540688426051435e-05 
0.39062500000000000 0.015625000000000000 0.0000000000000000 -5.3438702010466685e-06 -1.2433777844643384e-05 0.48873718588277332 1.7612152588464718e-07 -1.9389607645055050e-08 0.39062500000000000 0.015625000000000000 0.39061965612979893 0.015612566222155356 
0.40625000000000000 0.0000000000000000 0.0000000000000000 -5.8488811915872836e-06 -1.2951194834618447e-05 0.45469865377021906 1.7404440986959740e-07 0.0000000000000000 0.40625000000000000 0.0000000000000000 0.40624415111880841 -1.2951194834618447e-05 
0.40625000000000000 0.015625000000000000 0.0000000000000000 -5.4479500188072130e-06 -1.2850313297769661e-05 0.46158522884181208 1.7170576183792744e-07 -2.1329614353818962e-08 0.40625000000000000 0.015625000000000000 0.40624455204998117 0.015612149686702230 
0.42187500000000000 0.0000000000000000 0.0000000000000000 -5.9466885978825958e-06 -1.3361234814479155e-05 0.42818891786794172 1.6989015960624707e-07 0.0000000000000000 0.42187500000000000 0.0000000000000000 0.42186905331140218 -1.3361234814479155e-05 
0.42187500000000000 0.015625000000000000 0.0000000000000000 -5.5460937120350132e-06 -1.3266242107320055e-05 0.43511633450234855 1.6734907021371829e-07 -2.3491886493590798e-08 0.42187500000000000 0.015625000000000000 0.42186945390628788 0.015611733757892680 
0.43750000000000000 0.0000000000000000 0.0000000000000000 -6.0385777460009347e-06 -1.3770682740998896e-05 0.40234305464294279 1.6571772577700626e-07 0.0000000000000000 0.43750000000000000 0.0000000000000000 0.43749396142225400 -1.3770682740998896e-05 
0.43750000000000000 0.015625000000000000 0.0000000000000000 -5.6384446309334646e-06 -1.3681438085083531e-05 0.40932400290262666 1.6301875270355550e-07 -2.5824534615389892e-08 0.43750000000000000 0.015625000000000000 0.43749436155536908 0.015611318561914916 
0.45312500000000000 0.0000000000000000 0.0000000000000000 -6.1246847559909657e-06 -1.4179403777515881e-05 0.37716320854137103 1.6150686326667493e-07 0.0000000000000000 0.45312500000000000 0.0000000000000000 0.45311887531524403 -1.4179403777515881e-05 
0.45312500000000000 0.015625000000000000 0.0000000000000000 -5.7251463873238218e-06 -1.4095765115889876e-05 0.38420628617673885 1.5868855056906411e-07 -2.8282731649054331e-08 0.45312500000000000 0.015625000000000000 0.45311927485361275 0.015610904234884109 
0.46875000000000000 0.0000000000000000 0.0000000000000000 -6.2051487376275533e-06 -1.4587256152187558e-05 0.35265462030063016 1.5724129140689665e-07 0.0000000000000000 0.46875000000000000 0.0000000000000000 0.46874379485126233 -1.4587256152187558e-05 
0.46875000000000000 0.015625000000000000 0.0000000000000000 -5.8063435838133227e-06 -1.4509079576660814e-05 0.35976490134668609 1.5433727044509447e-07 -3.0827421821358188e-08 0.46875000000000000 0.015625000000000000 0.46874419365641623 0.015610490920423339 
0.48437500000000000 0.0000000000000000 0.0000000000000000 -6.2801121301543878e-06 -1.4994093127975062e-05 0.32882503617580122 1.5290782406276668e-07 0.0000000000000000 0.48437500000000000 0.0000000000000000 0.48436871988786984 -1.4994093127975062e-05 
0.48437500000000000 0.015625000000000000 0.0000000000000000 -5.8821824007880632e-06 -1.4921232417439566e-05 0.33600453087437693 1.4994771120079797e-07 -3.3424265794451826e-08 0.48437500000000000 0.015625000000000000 0.48436911781759923 0.015610078767582561 
0.50000000000000000 0.0000000000000000 0.0000000000000000 -6.3497209763169439e-06 -1.5399764722316374e-05 0.30568424477674228 1.4849567952316784e-07 0.0000000000000000 0.50000000000000000 0.0000000000000000 0.49999365027902370 -1.5399764722316374e-05 
0.50000000000000000 0.015625000000000000 0.0000000000000000 -5.9528110720219453e-06 -1.5332070967361401e-05 0.31293227047631073 1.4550582016357015e-07 -3.6042766242018137e-08 0.50000000000000000 0.015625000000000000 0.49999404718892798 0.015609667929032638 
0.51562500000000000 0.0000000000000000 0.0000000000000000 -6.4141251475115410e-06 -1.5804119222943021e-05 0.28324371492720030 1.4399593060687557e-07 0.0000000000000000 0.51562500000000000 0.0000000000000000 0.51561858587485254 -1.5804119222943021e-05 
0.51562500000000000 0.015625000000000000 0.0000000000000000 -6.0183802733453605e-06 -1.5741440517001803e-05 0.29055719307081945 1.4100002692644363e-07 -3.8655531641924539e-08 0.51562500000000000 0.015625000000000000 0.51561898161972664 0.015609258559483001 
0.53125000000000000 0.0000000000000000 0.0000000000000000 -6.4734785337454905e-06 -1.6207004538658572e-05 0.26151631362262645 1.3940106622836971e-07 0.0000000000000000 0.53125000000000000 0.0000000000000000 0.53124352652146622 -1.6207004538658572e-05 
0.53125000000000000 0.015625000000000000 0.0000000000000000 -6.0790434438613689e-06 -1.6149185719859749e-05 0.26889000451402317 1.3642071718318144e-07 -4.1237645982050473e-08 0.53125000000000000 0.015625000000000000 0.53124392095655615 0.015608850814280139 
0.54687500000000000 0.0000000000000000 0.0000000000000000 -6.5279392095665346e-06 -1.6608269418122063e-05 0.24051608727264162 1.3470464355653645e-07 0.0000000000000000 0.54687500000000000 0.0000000000000000 0.54686847206079048 -1.6608269418122063e-05 
0.54687500000000000 0.015625000000000000 0.0000000000000000 -6.1349570552591585e-06 -1.6555151849198075e-05 0.24794277171045065 1.3175981933231947e-07 -4.3766119359527090e-08 0.54687500000000000 0.015625000000000000 0.54686886504294474 0.015608444848150800 
0.56250000000000000 0.0000000000000000 0.0000000000000000 -6.5776695850153404e-06 -1.7007764565334537e-05 0.22025809237285535 1.2990101580960422e-07 0.0000000000000000 0.56250000000000000 0.0000000000000000 0.56249342233041499 -1.7007764565334537e-05 
0.56250000000000000 0.015625000000000000 0.0000000000000000 -6.1862808415800166e-06 -1.6959185941566734e-05 0.22772870725194092 1.2701048424722049e-07 -4.6219399847861660e-08 0.56250000000000000 0.015625000000000000 0.56249381371915852 0.015608040814058434 
0.57812500000000000 0.0000000000000000 0.0000000000000000 -6.6228365488600158e-06 -1.7405343677299988e-05 0.20075826383527021 1.2498512528840191e-07 0.0000000000000000 0.57812500000000000 0.0000000000000000 0.57811837716345116 -1.7405343677299988e-05 
0.57812500000000000 0.015625000000000000 0.0000000000000000 -6.2331779991345836e-06 -1.7361137854716644e-05 0.20826199728126701 1.2216684444848875e-07 -4.8576931038797226e-08 0.57812500000000000 0.015625000000000000 0.57811876682200092 0.015607638862145284 
0.59375000000000000 0.0000000000000000 0.0000000000000000 -6.6636116097874426e-06 -1.7800864426997134e-05 0.18203331059907871 1.1995235496161057e-07 0.0000000000000000 0.59375000000000000 0.0000000000000000 0.59374333638839016 -1.7800864426997134e-05 
0.59375000000000000 0.015625000000000000 0.0000000000000000 -6.2758153639935341e-06 -1.7760861265012348e-05 0.18955766102215257 1.1722384355577285e-07 -5.0818742673810789e-08 0.59375000000000000 0.015625000000000000 0.59374372418463606 0.015607239138734989 
0.60937500000000000 0.0000000000000000 0.0000000000000000 -6.7001710397704234e-06 -1.8194189413193428e-05 0.16410062896209340 1.1479843504857292e-07 0.0000000000000000 0.60937500000000000 0.0000000000000000 0.60936829982896024 -1.8194189413193428e-05 
0.60937500000000000 0.015625000000000000 0.0000000000000000 -6.3143635724504119e-06 -1.8158214627687447e-05 0.17163143151508473 1.1217713075802293e-07 -5.2925064089741651e-08 0.60937500000000000 0.015625000000000000 0.60936868563642754 0.015606841785372310 
0.62500000000000000 0.0000000000000000 0.0000000000000000 -6.7326960224267395e-06 -1.8585187097641903e-05 0.14697822438105815 1.0951940398363469e-07 0.0000000000000000 0.62500000000000000 0.0000000000000000 0.62499326730397753 -1.8585187097641903e-05 
0.62500000000000000 0.015625000000000000 0.0000000000000000 -6.3489972079787341e-06 -1.8553062122231062e-05 0.15449964763920679 1.0702301849637130e-07 -5.4875951991532740e-08 0.62500000000000000 0.015625000000000000 0.62499365100279203 0.015606446937877770 
0.64062500000000000 0.0000000000000000 0.0000000000000000 -6.7613728077633744e-06 -1.8973732749746987e-05 0.13068463230848296 1.0411162604601915e-07 0.0000000000000000 0.64062500000000000 0.0000000000000000 0.64061823862719225 -1.8973732749746987e-05 
0.64062500000000000 0.015625000000000000 0.0000000000000000 -6.3798949363801466e-06 -1.8945274604763108e-05 0.13817914752801252 1.0175850485239281e-07 -5.6650925530439118e-08 0.64062500000000000 0.015625000000000000 0.64061862010506365 0.015606054725395236 
0.65625000000000000 0.0000000000000000 0.0000000000000000 -6.7863928731779801e-06 -1.9359709418816378e-05 0.11523882794495333 9.8571871085856768e-08 0.0000000000000000 0.65625000000000000 0.0000000000000000 0.65624321360712679 -1.9359709418816378e-05 
0.65625000000000000 0.015625000000000000 0.0000000000000000 -6.4072396289547971e-06 -1.9334730589404443e-05 0.12268715300397211 9.6381365588503783e-08 -5.8228603008178044e-08 0.65625000000000000 0.015625000000000000 0.65624359276037103 0.015605665269410596 
0.67187500000000000 0.0000000000000000 0.0000000000000000 -6.8079530888799918e-06 -1.9743008954504927e-05 0.10066011353177369 9.2897465460770909e-08 0.0000000000000000 0.67187500000000000 0.0000000000000000 0.67186819204691117 -1.9743008954504927e-05 
0.67187500000000000 0.015625000000000000 0.0000000000000000 -6.4312184715244126e-06 -1.9721317281356542e-05 0.10804113362988887 9.0890324581193985e-08 -5.9586335883027883e-08 0.67187500000000000 0.015625000000000000 0.67186856878152845 0.015605278682718644 
0.68750000000000000 0.0000000000000000 0.0000000000000000 -6.8262558838848897e-06 -2.0123533096993738e-05 0.086967969882928972 8.7086527791851671e-08 0.0000000000000000 0.68750000000000000 0.0000000000000000 0.68749317374411623 -2.0123533096993738e-05 
0.68750000000000000 0.015625000000000000 0.0000000000000000 -6.4520230548980898e-06 -2.0104931685683351e-05 0.094258637329491538 8.5285315896960911e-08 -6.0699837470936553e-08 0.68750000000000000 0.015625000000000000 0.68749354797694506 0.015604895068314318 
0.70312500000000000 0.0000000000000000 0.0000000000000000 -6.8415094062842525e-06 -2.0501194659838781e-05 0.074181856102162394 8.1138308897592305e-08 0.0000000000000000 0.70312500000000000 0.0000000000000000 0.70311815849059356 -2.0501194659838781e-05 
0.70312500000000000 0.015625000000000000 0.0000000000000000 -6.4698494397701890e-06 -2.0485481817667501e-05 0.081357072149751922 7.9567856228490137e-08 -6.1542806073048500e-08 0.70312500000000000 0.015625000000000000 0.70311853015056025 0.015604514518182332 
0.71875000000000000 0.0000000000000000 0.0000000000000000 -6.8539276684101136e-06 -2.0875918830282685e-05 0.062320937627443701 7.5053662863805639e-08 0.0000000000000000 0.71875000000000000 0.0000000000000000 0.71874314607233158 -2.0875918830282685e-05 
0.71875000000000000 0.015625000000000000 0.0000000000000000 -6.4848981859335777e-06 -2.0862888043147008e-05 0.069353420463718257 7.3741553227710441e-08 -6.2086545864510409e-08 0.71875000000000000 0.015625000000000000 0.71874351510181411 0.015604137111956852 
0.73437500000000000 0.0000000000000000 0.0000000000000000 -6.8637306635311532e-06 -2.1247644614171779e-05 0.051403717594489313 6.8835686229741813e-08 0.0000000000000000 0.73437500000000000 0.0000000000000000 0.73436813626933650 -2.1247644614171779e-05 
0.73437500000000000 0.015625000000000000 0.0000000000000000 -6.4973743319039493e-06 -2.1237084580499929e-05 0.058263862535944753 6.7812783811677680e-08 -6.2299594564579162e-08 0.73437500000000000 0.015625000000000000 0.73436850262566811 0.015603762915419499 
0.75000000000000000 0.0000000000000000 0.0000000000000000 -6.8711444354704426e-06 -2.1616326455468291e-05 0.041447539632977128 6.2490575902888173e-08 0.0000000000000000 0.75000000000000000 0.0000000000000000 0.74999312885556468 -2.1616326455468291e-05 
0.75000000000000000 0.015625000000000000 0.0000000000000000 -6.5074873063657237e-06 -2.1608021200010664e-05 0.048103280650591738 6.1791587064927113e-08 -6.2147376054882687e-08 0.75000000000000000 0.015625000000000000 0.74999349251269365 0.015603391978799992 
0.76562500000000000 0.0000000000000000 0.0000000000000000 -6.8764010754881295e-06 -2.1981936063682531e-05 0.032467921150764079 5.6028774391893457e-08 0.0000000000000000 0.76562500000000000 0.0000000000000000 0.76561812359892445 -2.1981936063682531e-05 
0.76562500000000000 0.015625000000000000 0.0000000000000000 -6.5154507470047018e-06 -2.1975665161297836e-05 0.038884607684450984 5.5692828845628857e-08 -6.1591910980689920e-08 0.76562500000000000 0.015625000000000000 0.76561848454925296 0.015603024334838704 
0.78125000000000000 0.0000000000000000 0.0000000000000000 -6.8797386111534442e-06 -2.2344464486283696e-05 0.024477664466290586 4.9466495262087687e-08 0.0000000000000000 0.78125000000000000 0.0000000000000000 0.78124312026138887 -2.2344464486283696e-05 
0.78125000000000000 0.015625000000000000 0.0000000000000000 -6.5214821949748720e-06 -2.2340003435326523e-05 0.030617974935245110 4.9537709136132197e-08 -6.0591642229123553e-08 0.78125000000000000 0.015625000000000000 0.78124347851780496 0.015602659996564674 
0.79687500000000000 0.0000000000000000 0.0000000000000000 -6.8814007385927611e-06 -2.2703924467045965e-05 0.017485678516636387 4.2827750636111722e-08 0.0000000000000000 0.79687500000000000 0.0000000000000000 0.79686811859926143 -2.2703924467045965e-05 
0.79687500000000000 0.015625000000000000 0.0000000000000000 -6.5258026240976185e-06 -2.2701045264154094e-05 0.023309603330472578 4.3355694363731065e-08 -5.9101471339687147e-08 0.79687500000000000 0.015625000000000000 0.79686847419737594 0.015602298954735846 
0.81250000000000000 0.0000000000000000 0.0000000000000000 -6.8816363307254166e-06 -2.3060353134791540e-05 0.011495426610617096 3.6147043273552926e-08 0.0000000000000000 0.81250000000000000 0.0000000000000000 0.81249311836366933 -2.3060353134791540e-05 
0.81250000000000000 0.015625000000000000 0.0000000000000000 -6.5286357525202169e-06 -2.3058825118537242e-05 0.016960370737209698 3.7186963855970752e-08 -5.7073161538933189e-08 0.81250000000000000 0.015625000000000000 0.81249347136424743 0.015601941174881463 
0.82812500000000000 0.0000000000000000 0.0000000000000000 -6.8806986272703393e-06 -2.3413815068887706e-05 0.0065028975949552965 2.9472906613107496e-08 0.0000000000000000 0.82812500000000000 0.0000000000000000 0.82811811930137269 -2.3413815068887706e-05 
0.82812500000000000 0.015625000000000000 0.0000000000000000 -6.5302070705722243e-06 -2.3413406119754482e-05 0.011563978614328145 3.1085427810713879e-08 -5.4456370849462284e-08 0.82812500000000000 0.015625000000000000 0.82811846979292947 0.015601586593880246 
0.84375000000000000 0.0000000000000000 0.0000000000000000 -6.8788439734133795e-06 -2.3764405785549437e-05 0.0024939839132344698 2.2872539301308652e-08 0.0000000000000000 0.84375000000000000 0.0000000000000000 0.84374312115602657 -2.3764405785549437e-05 
0.84375000000000000 0.015625000000000000 0.0000000000000000 -6.5307425015762034e-06 -2.3764883994968949e-05 0.0071046395409332065 2.5122338250160299e-08 -5.1200694028020080e-08 0.84375000000000000 0.015625000000000000 0.84374346925749844 0.015601235116005032 
0.85937500000000000 0.0000000000000000 0.0000000000000000 -6.8763299168219203e-06 -2.4112255677127953e-05 -0.00055884689393105645 1.6437649257141933e-08 0.0000000000000000 0.85937500000000000 0.0000000000000000 0.85936812367008331 -2.4112255677127953e-05 
0.85937500000000000 0.015625000000000000 0.0000000000000000 -6.5304665920333540e-06 -2.4113391629844535e-05 0.0035542274676758148 1.9390196638404381e-08 -4.7259493160684249e-08 0.85937500000000000 0.015625000000000000 0.85936846953340795 0.015600886608370156 
0.87500000000000000 0.0000000000000000 0.0000000000000000 -6.8734123874220514e-06 -2.4457534403362670e-05 -0.0027006616274781706 1.0291592642299043e-08 0.0000000000000000 0.87500000000000000 0.0000000000000000 0.87499312658761264 -2.4457534403362670e-05 
0.87500000000000000 0.015625000000000000 0.0000000000000000 -6.5296001030949466e-06 -2.4459104256661495e-05 0.00086889400661318498 1.4006626623304609e-08 -4.2596024030936906e-08 0.87500000000000000 0.015625000000000000 0.87499347039989683 0.015600540895743338 
0.89062500000000000 0.0000000000000000 0.0000000000000000 -6.8703415560673625e-06 -2.4800455656404148e-05 -0.0039988823394280200 4.5979440397272618e-09 0.0000000000000000 0.89062500000000000 0.0000000000000000 0.89061812965844389 -2.4800455656404148e-05 
0.89062500000000000 0.015625000000000000 0.0000000000000000 -6.5283568450745957e-06 -2.4802245248901849e-05 -0.0010146714976438725 9.1160557416478357e-09 -3.7195443963674965e-08 0.89062500000000000 0.015625000000000000 0.89061847164315477 0.015600197754751100 
0.90625000000000000 0.0000000000000000 0.0000000000000000 -6.8673557715883959e-06 -2.5141282040788872e-05 -0.0045485396373318885 -4.3532058846661274e-10 0.0000000000000000 0.90625000000000000 0.0000000000000000 0.90624313264422840 -2.5141282040788872e-05 