# For a description of the Tecplot format see the Tecplot User's guide.
#
Variables=x,y,z,s_u,s_v,s_p,x,y,ref_u,ref_v,u,v
Zone f=fepoint, n=9409, e=18432, et=quadrilateral, c=black
0.00000 0.00000 0.00000 0.0000000000000000 0.0000000000000000 3.7802130113674082 0.0000000000000000 0.0000000000000000 0.0000000000000000 0.0000000000000000 0.0000000000000000 0.0000000000000000 
0.010416666666666666 0.0000000000000000 0.0000000000000000 -5.5557457249117610e-07 -1.1969691862589593e-06 3.2436532072393702 1.0441952895273784e-05 0.0000000000000000 0.010416666666666666 0.0000000000000000 0.010416111092094175 -1.1969691862589593e-06 
0.010416666666666666 0.010416666666666666 0.0000000000000000 -1.4781105731894856e-07 -7.7709609305238619e-07 3.3532332520202446 6.9093197316158698e-06 2.1112124645384158e-06 0.010416666666666666 0.010416666666666666 0.010416518855609347 0.010415889570573614 
0.0000000000000000 0.010416666666666666 0.0000000000000000 0.0000000000000000 0.0000000000000000 3.5436150116012128 0.0000000000000000 5.7471526770204270e-06 0.0000000000000000 0.010416666666666666 0.0000000000000000 0.010416666666666666 
0.020833333333333332 0.0000000000000000 0.0000000000000000 -9.1035599220676956e-07 -1.8568335831340823e-06 2.6073280269544359 5.8823914640017705e-06 0.0000000000000000 0.020833333333333332 0.0000000000000000 0.020832422977341124 -1.8568335831340823e-06 
0.020833333333333332 0.010416666666666666 0.0000000000000000 -4.9257847143959485e-07 -1.5160009129141740e-06 2.7735642022063804 4.5852711319652325e-06 -1.6196403924977279e-06 0.020833333333333332 0.010416666666666666 0.020832840754861890 0.010415150665753754 
0.031250000000000000 0.0000000000000000 0.0000000000000000 -1.1934647655976390e-06 -2.3698082212412056e-06 2.1648791410586234 3.4589266331349400e-06 0.0000000000000000 0.031250000000000000 0.0000000000000000 0.031248806535234402 -2.3698082212412056e-06 
0.031250000000000000 0.010416666666666666 0.0000000000000000 -7.9401664888063959e-07 -2.0807740528333529e-06 2.3074872785090226 3.6422465901042069e-06 -1.3031611474999767e-06 0.031250000000000000 0.010416666666666666 0.031249205983351121 0.010414585892613832 
0.041666666666666664 0.0000000000000000 0.0000000000000000 -1.4400415179423895e-06 -2.8123251914152229e-06 1.8756828210232721 2.2786599702084456e-06 0.0000000000000000 0.041666666666666664 0.0000000000000000 0.041665226625148724 -2.8123251914152229e-06 
0.041666666666666664 0.010416666666666666 0.0000000000000000 -1.0624244717329668e-06 -2.5567018434837079e-06 1.9840490302846077 2.5246627744812460e-06 -1.1878560619863970e-06 0.041666666666666664 0.010416666666666666 0.041665604242194933 0.010414109964823183 
0.052083333333333336 0.0000000000000000 0.0000000000000000 -1.6644673688336349e-06 -3.2120567385683380e-06 1.6780028815899755 1.5678232065661256e-06 0.0000000000000000 0.052083333333333336 0.0000000000000000 0.052081668865964499 -3.2120567385683380e-06 
0.052083333333333336 0.010416666666666666 0.0000000000000000 -1.3066837602395730e-06 -2.9794483203620288e-06 1.7593987508513254 1.7844692295369991e-06 -9.2335472537064511e-07 0.052083333333333336 0.010416666666666666 0.052082026649573086 0.010413687218346304 
0.062500000000000000 0.0000000000000000 0.0000000000000000 -1.8737071471476903e-06 -3.5829121534544437e-06 1.5364129325173970 1.1403282742019060e-06 0.0000000000000000 0.062500000000000000 0.0000000000000000 0.062498126292852861 -3.5829121534544437e-06 
0.062500000000000000 0.010416666666666666 0.0000000000000000 -1.5325714781984831e-06 -3.3671582070343398e-06 1.5985337877377159 1.3125325243338516e-06 -7.2879323907310355e-07 0.062500000000000000 0.010416666666666666 0.062498467428521810 0.010413299508459631 
0.072916666666666671 0.0000000000000000 0.0000000000000000 -2.0715309044628911e-06 -3.9330201761240190e-06 1.4299906667316815 8.7422533735648783e-07 0.0000000000000000 0.072916666666666671 0.0000000000000000 0.072914595135762206 -3.9330201761240190e-06 
0.072916666666666671 0.010416666666666666 0.0000000000000000 -1.7439775553601124e-06 -3.7302797407792431e-06 1.4784922415959729 1.0056657883334842e-06 -5.7621978450874743e-07 0.072916666666666671 0.010416666666666666 0.072914922689111317 0.010412936386925887 
0.083333333333333329 0.0000000000000000 0.0000000000000000 -2.2601865529143402e-06 -4.2676183789305792e-06 1.3463033361576484 7.0136579743718217e-07 0.0000000000000000 0.083333333333333329 0.0000000000000000 0.083331073146780413 -4.2676183789305792e-06 
0.083333333333333329 0.010416666666666666 0.0000000000000000 -1.9436084300871667e-06 -4.0753816665472995e-06 1.3850581321405764 8.0087476826143808e-07 -4.6076037351754198e-07 0.083333333333333329 0.010416666666666666 0.083331389724903240 0.010412591285000120 
0.093750000000000000 0.0000000000000000 0.0000000000000000 -2.4411221785178446e-06 -4.5903052168130248e-06 1.2778492626925859 5.8441007330408904e-07 0.0000000000000000 0.093750000000000000 0.0000000000000000 0.093747558877821477 -4.5903052168130248e-06 
0.093750000000000000 0.010416666666666666 0.0000000000000000 -2.1333969935368276e-06 -4.4068596745082962e-06 1.3094799802104873 6.6034582023300980e-07 -3.7252584540213231e-07 0.093750000000000000 0.010416666666666666 0.093747866603006477 0.010412259806992159 
0.10416666666666667 0.0000000000000000 0.0000000000000000 -2.6153310698678171e-06 -4.9036699174661563e-06 1.2199775350089057 5.0218893132854789e-07 0.0000000000000000 0.10416666666666667 0.0000000000000000 0.10416405133559681 -4.9036699174661563e-06 
0.10416666666666667 0.010416666666666666 0.0000000000000000 -2.3147571990100248e-06 -4.7278014323149793e-06 1.2462778860816448 5.6084190337251700e-07 -3.0422778852285664e-07 0.10416666666666667 0.010416666666666666 0.10416435190946767 0.010411938865234352 
0.11458333333333333 0.0000000000000000 0.0000000000000000 -2.7835288361219767e-06 -5.2096404049667006e-06 1.1697121050381238 4.4235005635026303e-07 0.0000000000000000 0.11458333333333333 0.0000000000000000 0.11458054980449721 -5.2096404049667006e-06 
0.11458333333333333 0.010416666666666666 0.0000000000000000 -2.4887453776431442e-06 -5.0404593046576347e-06 1.1919343595769141 4.8826160499982626e-07 -2.5058537100300719e-07 0.11458333333333333 0.010416666666666666 0.11458084458795569 0.010411626207362008 
0.12500000000000000 0.0000000000000000 0.0000000000000000 -2.9462508952154707e-06 -5.5096902504188120e-06 1.1250838359955639 3.9747224901532333e-07 0.0000000000000000 0.12500000000000000 0.0000000000000000 0.12499705374910479 -5.5096902504188120e-06 
0.12500000000000000 0.010416666666666666 0.0000000000000000 -2.6561658672027717e-06 -5.3465260247125308e-06 1.1441240564717461 4.3387215272424195e-07 -2.0787346208513153e-07 0.12500000000000000 0.010416666666666666 0.12499734383413279 0.010411320140641953 
0.13541666666666666 0.0000000000000000 0.0000000000000000 -3.1039097143194398e-06 -5.8049688484631305e-06 1.0847462839104736 3.6294264401158191e-07 0.0000000000000000 0.13541666666666666 0.0000000000000000 0.13541356275695235 -5.8049688484631305e-06 
0.13541666666666666 0.010416666666666666 0.0000000000000000 -2.8176418803995749e-06 -5.6473039999320140e-06 1.1012618412860393 3.9213037338342898e-07 -1.7345904594604583e-07 0.13541666666666666 0.010416666666666666 0.13541384902478626 0.010411019362666736 
0.14583333333333334 0.0000000000000000 0.0000000000000000 -3.2568304397676603e-06 -6.0963871162346578e-06 1.0477502188667420 3.3579261798143832e-07 0.0000000000000000 0.14583333333333334 0.0000000000000000 0.14583007650289356 -6.0963871162346578e-06 
0.14583333333333334 0.010416666666666666 0.0000000000000000 -2.9736640712061113e-06 -5.9438140851523540e-06 1.0622347807112253 3.5942263525375810e-07 -1.4545581922940684e-07 0.14583333333333334 0.010416666666666666 0.14583035966926214 0.010410722852581515 
0.15625000000000000 0.0000000000000000 0.0000000000000000 -3.4052742289443015e-06 -6.3846760508853936e-06 1.0134079612881133 3.1404629081482428e-07 0.0000000000000000 0.15625000000000000 0.0000000000000000 0.15624659472577104 -6.3846760508853936e-06 
0.15625000000000000 0.010416666666666666 0.0000000000000000 -3.1246244628476412e-06 -6.2368682225917758e-06 1.0262400962069969 3.3332616478642810e-07 -1.2248895751257138e-07 0.15625000000000000 0.010416666666666666 0.15624687537553716 0.010410429798444074 
0.16666666666666666 0.0000000000000000 0.0000000000000000 -3.5494541928679690e-06 -6.6704280064070068e-06 0.98120942032427438 2.9634650537861362e-07 0.0000000000000000 0.16666666666666666 0.0000000000000000 0.16666311721247379 -6.6704280064070068e-06 
0.16666666666666666 0.010416666666666666 0.0000000000000000 -3.2708405760143491e-06 -6.5271196073150711e-06 0.99268477835984426 3.1217173822887627e-07 -1.0353755607304272e-07 0.16666666666666666 0.010416666666666666 0.16666339582609060 0.010410139547059353 
0.17708333333333334 0.0000000000000000 0.0000000000000000 -3.6895466758313929e-06 -6.9541265658831891e-06 0.95076856852854075 2.8173426370111403e-07 0.0000000000000000 0.17708333333333334 0.0000000000000000 0.17707964378665750 -6.9541265658831891e-06 
0.17708333333333334 0.010416666666666666 0.0000000000000000 -3.4125728780618663e-06 -6.8150983510435847e-06 0.96112169785797974 2.9477969846343969e-07 -8.7829727207421920e-08 0.17708333333333334 0.010416666666666666 0.17707992076045528 0.010409851568315623 
0.18750000000000000 0.0000000000000000 0.0000000000000000 -3.8256994644695580e-06 -7.2361686537703781e-06 0.92178829959804875 2.6951477825784811e-07 0.0000000000000000 0.18750000000000000 0.0000000000000000 0.18749617430053553 -7.2361686537703781e-06 
0.18750000000000000 0.010416666666666666 0.0000000000000000 -3.5500376033933854e-06 -7.1012374803507185e-06 0.93120779571458046 2.8029690722281789e-07 -7.4772040431185962e-08 0.18750000000000000 0.010416666666666666 0.18749644996239659 0.010409565429186316 
0.19791666666666666 0.0000000000000000 0.0000000000000000 -3.9580379007848310e-06 -7.5168812273525645e-06 0.89403669857551238 2.5917364062662892e-07 0.0000000000000000 0.19791666666666666 0.0000000000000000 0.19791270862876587 -7.5168812273525645e-06 
0.19791666666666666 0.010416666666666666 0.0000000000000000 -3.6834163143940764e-06 -7.3858923054369862e-06 0.90267596737538580 2.6809354306581166e-07 -6.3901335852284401e-08 0.19791666666666666 0.010416666666666666 0.19791298325035225 0.010409280774361230 
0.20833333333333334 0.0000000000000000 0.0000000000000000 -4.0866695209864391e-06 -7.7965340938797468e-06 0.86733059773185894 2.5032278754338951e-07 0.0000000000000000 0.20833333333333334 0.0000000000000000 0.20832924666381236 -7.7965340938797468e-06 
0.20833333333333334 0.010416666666666666 0.0000000000000000 -3.8128631318887241e-06 -7.6693551259515733e-06 0.87531566565178986 2.5769612300837562e-07 -5.4851221744158910e-08 0.20833333333333334 0.010416666666666666 0.20832952047020145 0.010408997311540715 
0.21875000000000000 0.0000000000000000 0.0000000000000000 -4.2116876315911489e-06 -8.0753499026989254e-06 0.84152391178522823 2.4266468815321126e-07 0.0000000000000000 0.21875000000000000 0.0000000000000000 0.21874578831236838 -8.0753499026989254e-06 
0.21875000000000000 0.010416666666666666 0.0000000000000000 -3.9385102748034356e-06 -7.9518665835656931e-06 0.84895920219153831 2.4874295931326717e-07 -4.7328345776033560e-08 0.21875000000000000 0.010416666666666666 0.21874606148972520 0.010408714800083098 
0.22916666666666666 0.0000000000000000 0.0000000000000000 -4.3331741034992108e-06 -8.3535120407618140e-06 0.81649918957204859 2.3596799151984467e-07 0.0000000000000000 0.22916666666666666 0.0000000000000000 0.22916233349256313 -8.3535120407618140e-06 
0.22916666666666666 0.010416666666666666 0.0000000000000000 -4.0604723559117947e-06 -8.2336245556355691e-06 0.82347186819073015 2.4095384568090789e-07 -4.1095285181664916e-08 0.22916666666666666 0.010416666666666666 0.22916260619431075 0.010408433042111030 
0.23958333333333334 0.0000000000000000 0.0000000000000000 -4.4512015805542942e-06 -8.6311709474406877e-06 0.79216138179227347 2.3005058010498551e-07 0.0000000000000000 0.23958333333333334 0.0000000000000000 0.23957888213175280 -8.6311709474406877e-06 
0.23958333333333334 0.010416666666666666 0.0000000000000000 -4.1788497502466585e-06 -8.5147912143950679e-06 0.79874467535264504 2.3410898332939609e-07 -3.5958002151781380e-08 0.23958333333333334 0.010416666666666666 0.23957915448358311 0.010408151875452271 
0.25000000000000000 0.0000000000000000 0.0000000000000000 -4.5658352431445271e-06 -8.9084492207366590e-06 0.76843316827918040 2.2476753210157951e-07 0.0000000000000000 0.25000000000000000 0.0000000000000000 0.24999543416475686 -8.9084492207366590e-06 
0.25000000000000000 0.010416666666666666 0.0000000000000000 -4.2937312634934514e-06 -8.7954986963946600e-06 0.77468893321105192 2.2803404400980360e-07 -3.1756505469844685e-08 0.25000000000000000 0.010416666666666666 0.24999570626873654 0.010407871167970274 
0.26041666666666669 0.0000000000000000 0.0000000000000000 -4.6771342292271438e-06 -9.1854457875857406e-06 0.74525140373553178 2.2000241370664301e-07 0.0000000000000000 0.26041666666666669 0.0000000000000000 0.26041198953243744 -9.1854457875857406e-06 
0.26041666666666669 0.010416666666666666 0.0000000000000000 -4.4051962657094063e-06 -9.0758537045520211e-06 0.75123213835052638 2.2258939605745196e-07 -2.8357802869258345e-08 0.26041666666666669 0.010416666666666666 0.26041226147040097 0.010407590812962114 
0.27083333333333331 0.0000000000000000 0.0000000000000000 -4.7851527885254889e-06 -9.4622393410552995e-06 0.72256437926126571 2.1566087786952320e-07 0.0000000000000000 0.27083333333333331 0.0000000000000000 0.27082854818054480 -9.4622393410552995e-06 
0.27083333333333331 0.010416666666666666 0.0000000000000000 -4.5133164121308931e-06 -9.3559412802119398e-06 0.72831481705157264 2.1766220991367511e-07 -2.5650516120357440e-08 0.27083333333333331 0.010416666666666666 0.27082882001692116 0.010407310725386454 
0.28125000000000000 0.0000000000000000 0.0000000000000000 -4.8899412267107206e-06 -9.7388911972275996e-06 0.70032968793288697 2.1166589056931168e-07 0.0000000000000000 0.28125000000000000 0.0000000000000000 0.28124511005877328 -9.7388911972275996e-06 
0.28125000000000000 0.010416666666666666 0.0000000000000000 -4.6181570417954982e-06 -9.6358279225404752e-06 0.70588807154332078 2.1316059083986322e-07 -2.3540720520168891e-08 0.28125000000000000 0.010416666666666666 0.28124538184295828 0.010407030838744126 
0.29166666666666669 0.0000000000000000 0.0000000000000000 -4.9915466826984364e-06 -1.0015447688280263e-05 0.67851254373531467 2.0795412467392325e-07 0.0000000000000000 0.29166666666666669 0.0000000000000000 0.29166167511998398 -1.0015447688280263e-05 
0.29166666666666669 0.010416666666666666 0.0000000000000000 -4.7197783223375528e-06 -9.9155641894152698e-06 0.68391165269593468 2.0900916185595087e-07 -2.1948697829579115e-08 0.29166666666666669 0.010416666666666666 0.29166194688834435 0.010406751102477253 
0.30208333333333331 0.0000000000000000 0.0000000000000000 -5.0900137721655805e-06 -1.0291942181578557e-05 0.65708444492424445 2.0447320384449810e-07 0.0000000000000000 0.30208333333333331 0.0000000000000000 0.30207824331956112 -1.0291942181578557e-05 
0.30208333333333331 0.010416666666666666 0.0000000000000000 -4.8182361930084002e-06 -1.0195186882506066e-05 0.66235243151784173 2.0514569928429459e-07 -2.0806378720642773e-08 0.30208333333333331 0.010416666666666666 0.30207851509714029 0.010406471479784159 
0.31250000000000000 0.0000000000000000 0.0000000000000000 -5.1853851229572493e-06 -1.0568396794712401e-05 0.63602210199585674 2.0117957349143705e-07 0.0000000000000000 0.31250000000000000 0.0000000000000000 0.31249481461487705 -1.0568396794712401e-05 
0.31250000000000000 0.010416666666666666 0.0000000000000000 -4.9135831459528545e-06 -1.0474720895991959e-05 0.64118317620082443 2.0151854237466824e-07 -2.0055311260178167e-08 0.31250000000000000 0.010416666666666666 0.31249508641685403 0.010406191945770674 
0.32291666666666669 0.0000000000000000 0.0000000000000000 -5.2777018224767037e-06 -1.0844823861435709e-05 0.61530657103129771 1.9803683984370566e-07 0.0000000000000000 0.32291666666666669 0.0000000000000000 0.32291138896484423 -1.0844823861435709e-05 
0.32291666666666669 0.010416666666666666 0.0000000000000000 -5.0058688768215550e-06 -1.0754180790980552e-05 0.62038156570134284 1.9808457904318566e-07 -1.9645034595555518e-08 0.32291666666666669 0.010416666666666666 0.32291166079778982 0.010405912485875685 
0.33333333333333331 0.0000000000000000 0.0000000000000000 -5.3670037929281184e-06 -1.1121227192069183e-05 0.59492254796141419 1.9501446225709404e-07 0.0000000000000000 0.33333333333333331 0.0000000000000000 0.33332796632954037 -1.1121227192069183e-05 
0.33333333333333331 0.010416666666666666 0.0000000000000000 -5.0951408290659385e-06 -1.1033572144555294e-05 0.59992938819511443 1.9480766507482891e-07 -1.9531767512336475e-08 0.33333333333333331 0.010416666666666666 0.33332823819250423 0.010405633094522112 
0.34375000000000000 0.0000000000000000 0.0000000000000000 -5.4533301070527193e-06 -1.1397603163171547e-05 0.57485779004124904 1.9208671473344828e-07 0.0000000000000000 0.34375000000000000 0.0000000000000000 0.34374454666989296 -1.1397603163171547e-05 
0.34375000000000000 0.010416666666666666 0.0000000000000000 -5.1814446511514541e-06 -1.1312892712345223e-05 0.57981188531975958 1.9165737275659157e-07 -1.9677343643572326e-08 0.34375000000000000 0.010416666666666666 0.34374481855534883 0.010405353773954322 
0.35416666666666669 0.0000000000000000 0.0000000000000000 -5.5367192545092350e-06 -1.1673941664497538e-05 0.55510263872486654 1.8923185452517351e-07 0.0000000000000000 0.35416666666666669 0.0000000000000000 0.35416112994741217 -1.1673941664497538e-05 
0.35416666666666669 0.010416666666666666 0.0000000000000000 -5.2648245820100462e-06 -1.1592133435779812e-05 0.56001721234728907 1.8860799222969108e-07 -2.0048341326744499e-08 0.35416666666666669 0.010416666666666666 0.35416140184208467 0.010405074533230889 
0.36458333333333331 0.0000000000000000 0.0000000000000000 -5.6172093671143985e-06 -1.1950226925958772e-05 0.53564962400481198 1.8643145136154824e-07 0.0000000000000000 0.36458333333333331 0.0000000000000000 0.36457771612396622 -1.1950226925958772e-05 
0.36458333333333331 0.010416666666666666 0.0000000000000000 -5.3453237770299024e-06 -1.1871279319183590e-05 0.54053599127073437 1.8563772838620703e-07 -2.0615368116233677e-08 0.36458333333333331 0.010416666666666666 0.36457798800955626 0.010404795387347482 
0.37500000000000000 0.0000000000000000 0.0000000000000000 -5.6948384096431606e-06 -1.2226438243129160e-05 0.51649313468863178 1.8366984231822502e-07 0.0000000000000000 0.37500000000000000 0.0000000000000000 0.37499430516159044 -1.2226438243129160e-05 
0.37500000000000000 0.010416666666666666 0.0000000000000000 -5.4229845845271243e-06 -1.2150310197158269e-05 0.52136093891457136 1.8272805031396297e-07 -2.1352468941335188e-08 0.37500000000000000 0.010416666666666666 0.37499457701541550 0.010404516356469507 
0.38541666666666669 0.0000000000000000 0.0000000000000000 -5.7696443416919391e-06 -1.2502550616527404e-05 0.49762914242285156 1.8093368567619643e-07 0.0000000000000000 0.38541666666666669 0.0000000000000000 0.38541089702232495 -1.2502550616527404e-05 
0.38541666666666669 0.010416666666666666 0.0000000000000000 -5.4978487807981300e-06 -1.2429201408986000e-05 0.50248655605170311 1.7986316067227951e-07 -2.2236633720154689e-08 0.38541666666666669 0.010416666666666666 0.38541116881788590 0.010404237465257678 
0.39583333333333331 0.0000000000000000 0.0000000000000000 -5.8416652551573645e-06 -1.2778535317269542e-05 0.47905496982428636 1.7821159336452363e-07 0.0000000000000000 0.39583333333333331 0.0000000000000000 0.39582749166807818 -1.2778535317269542e-05 
0.39583333333333331 0.010416666666666666 0.0000000000000000 -5.5699577703932291e-06 -1.2707924393837643e-05 0.48390886646227588 1.7702956003305425e-07 -2.3247385379953215e-08 0.39583333333333331 0.010416666666666666 0.39582776337556291 0.010403958742272830 
0.40625000000000000 0.0000000000000000 0.0000000000000000 -5.9109394911218599e-06 -1.3054360389565827e-05 0.46076909503967906 1.7549382622772648e-07 0.0000000000000000 0.40625000000000000 0.0000000000000000 0.40624408906050885 -1.3054360389565827e-05 
0.40625000000000000 0.010416666666666666 0.0000000000000000 -5.6393527570915535e-06 -1.2986447218211573e-05 0.46562519713770012 1.7421568696588734e-07 -2.4366433239592924e-08 0.40625000000000000 0.010416666666666666 0.40624436064724284 0.010403680219448456 
0.41666666666666669 0.0000000000000000 0.0000000000000000 -5.9775057393242024e-06 -1.3329991098825873e-05 0.44277098657527764 1.7277203983087742e-07 0.0000000000000000 0.41666666666666669 0.0000000000000000 0.41666068916092741 -1.3329991098825873e-05 
0.41666666666666669 0.010416666666666666 0.0000000000000000 -5.7060748901280871e-06 -1.3264735045132036e-05 0.44763399258793063 1.7141161892326601e-07 -2.5577379742973904e-08 0.41666666666666669 0.010416666666666666 0.41666096059177654 0.010403401931621535 
0.42708333333333331 0.0000000000000000 0.0000000000000000 -6.0414031228956446e-06 -1.3605390332749890e-05 0.42506096342376670 1.7003907124487415e-07 0.0000000000000000 0.42708333333333331 0.0000000000000000 0.42707729193021043 -1.3605390332749890e-05 
0.42708333333333331 0.010416666666666666 0.0000000000000000 -5.7701653894741978e-06 -1.3542750553104224e-05 0.42993465757788768 1.6860882227760987e-07 -2.6865470955145222e-08 0.42708333333333331 0.010416666666666666 0.42707756316794382 0.010403123916113562 
0.43750000000000000 0.0000000000000000 0.0000000000000000 -6.1026712706358890e-06 -1.3880518961653135e-05 0.40764007644725747 1.6728875921299600e-07 0.0000000000000000 0.43750000000000000 0.0000000000000000 0.43749389732872929 -1.3880518961653135e-05 
0.43750000000000000 0.010416666666666666 0.0000000000000000 -5.8316656533649088e-06 -1.3820454311577966e-05 0.41252742369016610 1.6579994233319559e-07 -2.8217383085088864e-08 0.43750000000000000 0.010416666666666666 0.43749416833434657 0.010402846212355087 
0.44791666666666669 0.0000000000000000 0.0000000000000000 -6.1613503787692671e-06 -1.4155336163345535e-05 0.39051000771100353 1.6451579174321953e-07 0.0000000000000000 0.44791666666666669 0.0000000000000000 0.44791050531628790 -1.4155336163345535e-05 
0.44791666666666669 0.010416666666666666 0.0000000000000000 -5.8906173507695468e-06 -1.4097805118655927e-05 0.39541323595743144 1.6297862605521746e-07 -2.9621038769323511e-08 0.44791666666666669 0.010416666666666666 0.44791077604931590 0.010402568861548013 
0.45833333333333331 0.0000000000000000 0.0000000000000000 -6.2174812638449269e-06 -1.4429799717128974e-05 0.37367298504582580 1.6171557635060940e-07 0.0000000000000000 0.45833333333333331 0.0000000000000000 0.45832711585206948 -1.4429799717128974e-05 
0.45833333333333331 0.010416666666666666 0.0000000000000000 -5.9470625010940931e-06 -1.4374760305950529e-05 0.37859365647794707 1.6013937177320314e-07 -3.1065448034892792e-08 0.45833333333333331 0.010416666666666666 0.45832738627083219 0.010402291906360715 
0.46875000000000000 0.0000000000000000 0.0000000000000000 -6.2711054082146281e-06 -1.4703866270847953e-05 0.35713170958366991 1.5888412913597788e-07 0.0000000000000000 0.46875000000000000 0.0000000000000000 0.46874372889459176 -1.4703866270847953e-05 
0.46875000000000000 0.010416666666666666 0.0000000000000000 -6.0010435430658999e-06 -1.4651276014809317e-05 0.36207078246217383 1.5727740123650961e-07 -3.2540569770944552e-08 0.46875000000000000 0.010416666666666666 0.46874399895645696 0.010402015390651857 
0.47916666666666669 0.0000000000000000 0.0000000000000000 -6.3222649993282822e-06 -1.4977491584411216e-05 0.34088929438388388 1.5601797965422701e-07 0.0000000000000000 0.47916666666666669 0.0000000000000000 0.47916034440166738 -1.4977491584411216e-05 
0.47916666666666669 0.010416666666666666 0.0000000000000000 -6.0526033944702834e-06 -1.4927307447564040e-05 0.34584717658633596 1.5438855034547372e-07 -3.4037190290125285e-08 0.47916666666666669 0.010416666666666666 0.47916061406327221 0.010401739359219104 
0.48958333333333331 0.0000000000000000 0.0000000000000000 -6.3710029639241057e-06 -1.5250630752773067e-05 0.32494921256819942 1.5311408909340538e-07 0.0000000000000000 0.48958333333333331 0.0000000000000000 0.48957696233036940 -1.5250630752773067e-05 
0.48958333333333331 0.010416666666666666 0.0000000000000000 -6.1017855041726665e-06 -1.5202809096992349e-05 0.32992580787256748 1.5146917557925901e-07 -3.5546816157896862e-08 0.48958333333333331 0.010416666666666666 0.48957723154782912 0.010401463857569673 
0.50000000000000000 0.0000000000000000 0.0000000000000000 -6.4173629980509317e-06 -1.5523238411006771e-05 0.30931525362488893 1.5016977977520521e-07 0.0000000000000000 0.50000000000000000 0.0000000000000000 0.49999358263700194 -1.5523238411006771e-05 
0.50000000000000000 0.010416666666666666 0.0000000000000000 -6.1486338976609486e-06 -1.5477734956794681e-05 0.31431000159268380 1.4851607372528184e-07 -3.7061578942827228e-08 0.50000000000000000 0.010416666666666666 0.49999385136610236 0.010401188931709869 
0.51041666666666663 0.0000000000000000 0.0000000000000000 -6.4613895937407129e-06 -1.5795268923806221e-05 0.29399148673789555 1.4718267438487336e-07 0.0000000000000000 0.51041666666666663 0.0000000000000000 0.51041020527707293 -1.5795268923806221e-05 
0.51041666666666663 0.010416666666666666 0.0000000000000000 -6.1931932171734204e-06 -1.5752038715568021e-05 0.29900339691652134 1.4552641297368294e-07 -3.8574149935818745e-08 0.51041666666666663 0.010416666666666666 0.51041047347344948 0.010400914627951098 
0.52083333333333337 0.0000000000000000 0.0000000000000000 -6.5031280630455241e-06 -1.6066676561506890e-05 0.27898223015560492 1.4415064358749547e-07 0.0000000000000000 0.52083333333333337 0.0000000000000000 0.52082683020527032 -1.6066676561506890e-05 
0.52083333333333337 0.010416666666666666 0.0000000000000000 -6.2355087573321353e-06 -1.6025673936493410e-05 0.28400991120688385 1.4249767380855067e-07 -4.0077663205421277e-08 0.52083333333333337 0.010416666666666666 0.52082709782457604 0.010400640992730173 
0.53125000000000000 0.0000000000000000 0.0000000000000000 -6.5426245600626093e-06 -1.6337415664512680e-05 0.26429202574132410 1.4107176102943555e-07 0.0000000000000000 0.53125000000000000 0.0000000000000000 0.53124345737543999 -1.6337415664512680e-05 
0.53125000000000000 0.010416666666666666 0.0000000000000000 -6.2756264970759928e-06 -1.6298594224733644e-05 0.26933371000984369 1.3942759842646210e-07 -4.1565645590745188e-08 0.53125000000000000 0.010416666666666666 0.53124372437350298 0.010400368072441933 
0.54166666666666663 0.0000000000000000 0.0000000000000000 -6.5799261014907167e-06 -1.6607440797847569e-05 0.24992561794981727 1.3794426484942053e-07 0.0000000000000000 0.54166666666666663 0.0000000000000000 0.54166008674056509 -1.6607440797847569e-05 
0.54166666666666663 0.010416666666666666 0.0000000000000000 -6.3135931285774974e-06 -1.6570753384356814e-05 0.25497918190653990 1.3631414768174031e-07 -4.3031952486484667e-08 0.54166666666666663 0.010416666666666666 0.54166035307353810 0.010400095913282309 
0.55208333333333337 0.0000000000000000 0.0000000000000000 -6.6150805861887876e-06 -1.6876706897412187e-05 0.23588793655636278 1.3476652504387758e-07 0.0000000000000000 0.55208333333333337 0.0000000000000000 0.55207671825274718 -1.6876706897412187e-05 
0.55208333333333337 0.010416666666666666 0.0000000000000000 -6.3494560837299874e-06 -1.6842105566452643e-05 0.24095091748692640 1.3315546473879499e-07 -4.4470708398469757e-08 0.55208333333333337 0.010416666666666666 0.55207698387724957 0.010399824561100212 
0.56250000000000000 0.0000000000000000 0.0000000000000000 -6.6481368141425767e-06 -1.7145169409413245e-05 0.22218408252785471 1.3153701618736146e-07 0.0000000000000000 0.56250000000000000 0.0000000000000000 0.56249335186318583 -1.7145169409413245e-05 
0.56250000000000000 0.010416666666666666 0.0000000000000000 -6.3832635587045278e-06 -1.7112605409987988e-05 0.22725369178023724 1.2994984480883114e-07 -4.5876251422567768e-08 0.56250000000000000 0.010416666666666666 0.56249361673644127 0.010399554061256679 
0.57291666666666663 0.0000000000000000 0.0000000000000000 -6.6791445051842306e-06 -1.7412784424343486e-05 0.20881931647396654 1.2825429510231471e-07 0.0000000000000000 0.57291666666666663 0.0000000000000000 0.57290998752216149 -1.7412784424343486e-05 
0.57291666666666663 0.010416666666666666 0.0000000000000000 -6.4150645369963165e-06 -1.7382208176851721e-05 0.21389244953343955 1.2669571050716025e-07 -4.7243080907579485e-08 0.57291666666666663 0.010416666666666666 0.57291025160212961 0.010399284458489812 
0.58333333333333337 0.0000000000000000 0.0000000000000000 -6.7081543177526885e-06 -1.7679508806818856e-05 0.19579904915145530 1.2491698322315604e-07 0.0000000000000000 0.58333333333333337 0.0000000000000000 0.58332662517901557 -1.7679508806818856e-05 
0.58333333333333337 0.010416666666666666 0.0000000000000000 -6.4449088113067147e-06 -1.7650869882463809e-05 0.20087229277160756 1.2339159246639114e-07 -4.8565807636645588e-08 0.58333333333333337 0.010416666666666666 0.58332688842452207 0.010399015796784204 
0.59375000000000000 0.0000000000000000 0.0000000000000000 -6.7352178679281592e-06 -1.7945300322526486e-05 0.18312883351584477 1.2152375351955341e-07 0.0000000000000000 0.59375000000000000 0.0000000000000000 0.59374326478213202 -1.7945300322526486e-05 
0.59375000000000000 0.010416666666666666 0.0000000000000000 -6.4728470045375380e-06 -1.7918547423267453e-05 0.18819847010238422 1.2003611502580668e-07 -4.9839105981838338e-08 0.59375000000000000 0.010416666666666666 0.59374352715299550 0.010398748119243399 
0.60416666666666663 0.0000000000000000 0.0000000000000000 -6.7603877489201604e-06 -1.8210117763499314e-05 0.17081435782592083 1.1807332188541880e-07 0.0000000000000000 0.60416666666666663 0.0000000000000000 0.60415990627891769 -1.8210117763499314e-05 