# For a description of the Tecplot format see the Tecplot User's guide.
#
Variables=x,y,z,s_u,s_v,s_p,x,y,ref_u,ref_v,u,v
Zone f=fepoint, n=9409, e=18432, et=quadrilateral, c=black
0.00000 0.00000 0.00000 0.0000000000000000 0.0000000000000000 3.8820645768361022 0.0000000000000000 0.0000000000000000 0.0000000000000000 0.0000000000000000 0.0000000000000000 0.0000000000000000 
0.010416666666666666 0.0000000000000000 0.0000000000000000 -5.5087905853275042e-07 -1.1996476995774127e-06 3.2700830170260038 1.2844213149458000e-05 0.0000000000000000 0.010416666666666666 0.0000000000000000 0.010416115787608133 -1.1996476995774127e-06 
0.010416666666666666 0.010416666666666666 0.0000000000000000 -1.4366427043337007e-07 -7.7877568626898491e-07 3.4271558628833456 7.8493522940993499e-06 1.7086024202148168e-06 0.010416666666666666 0.010416666666666666 0.010416523002396233 0.010415887890980398 
0.0000000000000000 0.010416666666666666 0.0000000000000000 0.0000000000000000 0.0000000000000000 3.6296236261593968 0.0000000000000000 7.0920443877075904e-06 0.0000000000000000 0.010416666666666666 0.0000000000000000 0.010416666666666666 
0.020833333333333332 0.0000000000000000 0.0000000000000000 -9.0533526309409589e-07 -1.8565136637939162e-06 2.5539485241501603 5.4246865437577624e-06 0.0000000000000000 0.020833333333333332 0.0000000000000000 0.020832427998070238 -1.8565136637939162e-06 
0.020833333333333332 0.010416666666666666 0.0000000000000000 -4.8780820289582767e-07 -1.5178583125684375e-06 2.7738866472245562 5.1356312372591363e-06 -2.9528134658748520e-06 0.020833333333333332 0.010416666666666666 0.020832845525130431 0.010415148808354098 
0.031250000000000000 0.0000000000000000 0.0000000000000000 -1.1890869331955343e-06 -2.3682838354244564e-06 2.1084363721017736 3.3306486532577417e-06 0.0000000000000000 0.031250000000000000 0.0000000000000000 0.031248810913066805 -2.3682838354244564e-06 
0.031250000000000000 0.010416666666666666 0.0000000000000000 -7.8964513827637729e-07 -2.0815301789075940e-06 2.2752057947097986 3.8459556556915362e-06 -1.9616405496116984e-06 0.031250000000000000 0.010416666666666666 0.031249210354861723 0.010414585136487757 
0.041666666666666664 0.0000000000000000 0.0000000000000000 -1.4364648080086871e-06 -2.8102830256157016e-06 1.8288108473013016 2.1287567115370524e-06 0.0000000000000000 0.041666666666666664 0.0000000000000000 0.041665230201858652 -2.8102830256157016e-06 
0.041666666666666664 0.010416666666666666 0.0000000000000000 -1.0587746437349529e-06 -2.5565363388822279e-06 1.9482405168795121 2.4606807881599696e-06 -1.5556641799244282e-06 0.041666666666666664 0.010416666666666666 0.041665607892022928 0.010414110130327782 
0.052083333333333336 0.0000000000000000 0.0000000000000000 -1.6615770089435065e-06 -3.2099016711340826e-06 1.6419390455310383 1.4497573639926325e-06 0.0000000000000000 0.052083333333333336 0.0000000000000000 0.052081671756324395 -3.2099016711340826e-06 
0.052083333333333336 0.010416666666666666 0.0000000000000000 -1.3036750545210358e-06 -2.9787447715093966e-06 1.7291098267256559 1.7121078516201603e-06 -1.1560674341330044e-06 0.052083333333333336 0.010416666666666666 0.052082029658278815 0.010413687921895157 
0.062500000000000000 0.0000000000000000 0.0000000000000000 -1.8713199163614739e-06 -3.5808185836781039e-06 1.5091193605300151 1.0583909042171855e-06 0.0000000000000000 0.062500000000000000 0.0000000000000000 0.062498128680083635 -3.5808185836781039e-06 
0.062500000000000000 0.010416666666666666 0.0000000000000000 -1.5300479452191174e-06 -3.3661797857894198e-06 1.5748579476303071 1.2488721433683620e-06 -8.8699099782071383e-07 0.062500000000000000 0.010416666666666666 0.062498469952054776 0.010413300486880876 
0.072916666666666671 0.0000000000000000 0.0000000000000000 -2.0694894636191691e-06 -3.9310450535351393e-06 1.4091152196854149 8.1756857019241087e-07 0.0000000000000000 0.072916666666666671 0.0000000000000000 0.072914597177203055 -3.9310450535351393e-06 
0.072916666666666671 0.010416666666666666 0.0000000000000000 -1.7418017532165659e-06 -3.7291756451398027e-06 1.4602971486671370 9.5671222606698207e-07 -6.9347779574340200e-07 0.072916666666666671 0.010416666666666666 0.072914924864913452 0.010412937491021526 
0.083333333333333329 0.0000000000000000 0.0000000000000000 -2.2583749852057846e-06 -4.2657651044967454e-06 1.3299920980095192 6.6189587515390465e-07 0.0000000000000000 0.083333333333333329 0.0000000000000000 0.083331074958348128 -4.2657651044967454e-06 
0.083333333333333329 0.010416666666666666 0.0000000000000000 -1.9416756577631937e-06 -4.0742250284995026e-06 1.3709636528398013 7.6533646822164072e-07 -5.5277440959172361e-07 0.083333333333333329 0.010416666666666666 0.083331391657675571 0.010412592441638167 
0.093750000000000000 0.0000000000000000 0.0000000000000000 -2.4394608467437654e-06 -4.5885567194567632e-06 1.2647910077909479 5.5635320875120691e-07 0.0000000000000000 0.093750000000000000 0.0000000000000000 0.093747560539153271 -4.5885567194567632e-06 
0.093750000000000000 0.010416666666666666 0.0000000000000000 -2.1316327994439924e-06 -4.4056816916479834e-06 1.2983586231046682 6.3463219350754683e-07 -4.4770670427364298e-07 0.093750000000000000 0.010416666666666666 0.093747868367200560 0.010412260984975018 
0.10416666666666667 0.0000000000000000 0.0000000000000000 -2.6137670098857008e-06 -4.9020036913081825e-06 1.2092773512583757 4.8170773134667816e-07 0.0000000000000000 0.10416666666666667 0.0000000000000000 0.10416405289965679 -4.9020036913081825e-06 
0.10416666666666667 0.010416666666666666 0.0000000000000000 -2.3131099207660591e-06 -4.7266123025307108e-06 1.2373133463268957 5.4201024773451792e-07 -3.6738126602880699e-07 0.10416666666666667 0.010416666666666666 0.10416435355674590 0.010411940054364134 
0.11458333333333333 0.0000000000000000 0.0000000000000000 -2.7820272477620654e-06 -5.2080347320174253e-06 1.1607610445053194 4.2699198711145174e-07 0.0000000000000000 0.11458333333333333 0.0000000000000000 0.11458055130608556 -5.2080347320174253e-06 
0.11458333333333333 0.010416666666666666 0.0000000000000000 -2.4871793379786610e-06 -5.0392596848913616e-06 1.1845588132681741 4.7419486438788593e-07 -3.0473465856246102e-07 0.11458333333333333 0.010416666666666666 0.11458084615399534 0.010411627406981774 
0.12500000000000000 0.0000000000000000 0.0000000000000000 -2.9447889066157675e-06 -5.5081262902909407e-06 1.1174615907087264 3.8566893312292987e-07 0.0000000000000000 0.12500000000000000 0.0000000000000000 0.12499705521109339 -5.5081262902909407e-06 
0.12500000000000000 0.010416666666666666 0.0000000000000000 -2.6546562945225006e-06 -5.3453127618801828e-06 1.1379443565022358 4.2313299498161024e-07 -2.5506473244981041e-07 0.12500000000000000 0.010416666666666666 0.12499734534370548 0.010411321353904783 
0.13541666666666666 0.0000000000000000 0.0000000000000000 -3.1024721710565834e-06 -5.8034309795971312e-06 1.0781560125336791 3.5367693049274327e-07 0.0000000000000000 0.13541666666666666 0.0000000000000000 0.13541356419449560 -5.8034309795971312e-06 
0.13541666666666666 0.010416666666666666 0.0000000000000000 -2.8161713901784855e-06 -5.6460728065312166e-06 1.0960021863818836 3.8376163992734772e-07 -2.1515670851678806e-07 0.13541666666666666 0.010416666666666666 0.13541385049527646 0.010411020593860135 
0.14583333333333334 0.0000000000000000 0.0000000000000000 -3.2554071723511231e-06 -6.0948626241140020e-06 1.0419767287718307 3.2838953557803042e-07 0.0000000000000000 0.14583333333333334 0.0000000000000000 0.14583007792616098 -6.0948626241140020e-06 
0.14583333333333334 0.010416666666666666 0.0000000000000000 -2.9722203044580513e-06 -5.9425606821467484e-06 1.0576974046179011 3.5278359475243554e-07 -1.8274926147006587e-07 0.14583333333333334 0.010416666666666666 0.14583036111302891 0.010410724105984521 
0.15625000000000000 0.0000000000000000 0.0000000000000000 -3.4038583119890886e-06 -6.3831546398484149e-06 1.0082911723471637 3.0804534165120480e-07 0.0000000000000000 0.15625000000000000 0.0000000000000000 0.15624659614168801 -6.3831546398484149e-06 
0.15625000000000000 0.010416666666666666 0.0000000000000000 -3.1231985169326495e-06 -6.2355887598525010e-06 1.0222795971575553 3.2798059145079456e-07 -1.5621021647425725e-07 0.15625000000000000 0.010416666666666666 0.15624687680148308 0.010410431077906816 
0.16666666666666666 0.0000000000000000 0.0000000000000000 -3.5480408417034350e-06 -6.6689013223411884e-06 0.97662741374450146 2.9142436078067023e-07 0.0000000000000000 0.16666666666666666 0.0000000000000000 0.16666311862582495 -6.6689013223411884e-06 
0.16666666666666666 0.010416666666666666 0.0000000000000000 -3.2694259598106087e-06 -6.5258107650248225e-06 0.98919159090014463 3.0781571144652990e-07 -1.3433420906711302e-07 0.16666666666666666 0.010416666666666666 0.16666339724070681 0.010410140855901641 
0.17708333333333334 0.0000000000000000 0.0000000000000000 -3.6881325443516349e-06 -6.9525877905158313e-06 0.94662656761974906 2.7765760475863612e-07 0.0000000000000000 0.17708333333333334 0.0000000000000000 0.17707964520078900 -6.9525877905158313e-06 
0.17708333333333334 0.010416666666666666 0.0000000000000000 -3.4111648100484800e-06 -6.8137573135631240e-06 0.95801139556563031 2.9119606631332292e-07 -1.1621306989971957e-07 0.17708333333333334 0.010416666666666666 0.17707992216852331 0.010409852909353102 
0.18750000000000000 0.0000000000000000 0.0000000000000000 -3.8242821935895875e-06 -7.2346121797155806e-06 0.91801133553285419 2.6611102584333428e-07 0.0000000000000000 0.18750000000000000 0.0000000000000000 0.18749617571780641 -7.2346121797155806e-06 
0.18750000000000000 0.010416666666666666 0.0000000000000000 -3.5486325340007092e-06 -7.0998618686601399e-06 0.92841405161824919 2.7732663068481265e-07 -1.0115050670228603e-07 0.18750000000000000 0.010416666666666666 0.18749645136746598 0.010409566804798006 
0.19791666666666666 0.0000000000000000 0.0000000000000000 -3.9566158235878060e-06 -7.5153024047663070e-06 0.89056459925224429 2.5631235863620123e-07 0.0000000000000000 0.19791666666666666 0.0000000000000000 0.19791271005084307 -7.5153024047663070e-06 
0.19791666666666666 0.010416666666666666 0.0000000000000000 -3.6820115960808038e-06 -7.3844801041446978e-06 0.90014581363663293 2.6561746503705301e-07 -8.8604458225529825e-08 0.19791666666666666 0.010416666666666666 0.19791298465507057 0.010409282186562521 
0.20833333333333334 0.0000000000000000 0.0000000000000000 -4.0852414665780506e-06 -7.7949290350773655e-06 0.86411447294384625 2.4790354787027309e-07 0.0000000000000000 0.20833333333333334 0.0000000000000000 0.20832924809186673 -7.7949290350773655e-06 
0.20833333333333334 0.010416666666666666 0.0000000000000000 -3.8114567876330325e-06 -7.6679046180630340e-06 0.87300621861778904 2.5562315048636240e-07 -7.8147207601568425e-08 0.20833333333333334 0.010416666666666666 0.20832952187654571 0.010408998762048602 
0.21875000000000000 0.0000000000000000 0.0000000000000000 -4.2102527918987177e-06 -8.0737153317802420e-06 0.83852362654218215 2.4060893177668498e-07 0.0000000000000000 0.21875000000000000 0.0000000000000000 0.21874578974720812 -8.0737153317802420e-06 
0.21875000000000000 0.010416666666666666 0.0000000000000000 -3.9371008330516757e-06 -7.9503762964129122e-06 0.84683534107199676 2.4700222435633712e-07 -6.9437188984836177e-08 0.21875000000000000 0.010416666666666666 0.21874606289916695 0.010408716290370254 
0.22916666666666666 0.0000000000000000 0.0000000000000000 -4.3317319408429526e-06 -8.3518451775270909e-06 0.81368150716163623 2.3421342371526472e-07 0.0000000000000000 0.22916666666666666 0.0000000000000000 0.22916233493472582 -8.3518451775270909e-06 
0.22916666666666666 0.010416666666666666 0.0000000000000000 -4.0590587310654300e-06 -8.2320932175387771e-06 0.82150454976156306 2.3948937590073456e-07 -6.2198678730947687e-08 0.22916666666666666 0.010416666666666666 0.22916260760793558 0.010408434573449128 
0.23958333333333334 0.0000000000000000 0.0000000000000000 -4.4497517621074651e-06 -8.6294694172471893e-06 0.78949857232200538 2.2854721611884185e-07 0.0000000000000000 0.23958333333333334 0.0000000000000000 0.23957888358157123 -8.6294694172471893e-06 
0.23958333333333334 0.010416666666666666 0.0000000000000000 -4.1774311548211427e-06 -8.5132177204037171e-06 0.79690968385922123 2.3287598946166540e-07 -5.6206918704083163e-08 0.23958333333333334 0.010416666666666666 0.23957915590217851 0.010408153448946260 
0.25000000000000000 0.0000000000000000 0.0000000000000000 -4.5643775934724786e-06 -8.9067109839710575e-06 0.76590194831630454 2.2347484647053949e-07 0.0000000000000000 0.25000000000000000 0.0000000000000000 0.24999543562240653 -8.9067109839710575e-06 
0.25000000000000000 0.010416666666666666 0.0000000000000000 -4.2923071426310965e-06 -8.7938820812913458e-06 0.77296593551440262 2.2699627454162592e-07 -5.1277054984335367e-08 0.25000000000000000 0.010416666666666666 0.24999570769285737 0.010407872784585374 
0.26041666666666669 0.0000000000000000 0.0000000000000000 -4.6756686952259185e-06 -9.1836690840213790e-06 0.74283211638382773 2.1888724610419322e-07 0.0000000000000000 0.26041666666666669 0.0000000000000000 0.26041199099797147 -9.1836690840213790e-06 
0.26041666666666669 0.010416666666666666 0.0000000000000000 -4.4037662476958013e-06 -9.0741931215159187e-06 0.74960395809431513 2.2171721319524441e-07 -4.7255803021886679e-08 0.26041666666666669 0.010416666666666666 0.26041226290041891 0.010407592473545150 
0.27083333333333331 0.0000000000000000 0.0000000000000000 -4.7836794130343567e-06 -9.4604226455688207e-06 0.72024035204065695 2.1469586929060785e-07 0.0000000000000000 0.27083333333333331 0.0000000000000000 0.27082854965392028 -9.4604226455688207e-06 
0.27083333333333331 0.010416666666666666 0.0000000000000000 -4.5118802705260445e-06 -9.3542359838430662e-06 0.72676686920113076 2.1693116462049090e-07 -4.4015091315229009e-08 0.27083333333333331 0.010416666666666666 0.27082882145306281 0.010407312430682823 
0.28125000000000000 0.0000000000000000 0.0000000000000000 -4.8884601283100734e-06 -9.7370331842444336e-06 0.69808672424498586 2.1082829876770620e-07 0.0000000000000000 0.28125000000000000 0.0000000000000000 0.28124511153987169 -9.7370331842444336e-06 
0.28125000000000000 0.010416666666666666 0.0000000000000000 -4.6167146661049413e-06 -9.6340772552337701e-06 0.70440791645490819 2.1255035061073533e-07 -4.1447160874157541e-08 0.28125000000000000 0.010416666666666666 0.28124538328533388 0.010407032589411433 
0.29166666666666669 0.0000000000000000 0.0000000000000000 -4.9900580399999485e-06 -1.0013547202977802e-05 0.67633851609353945 2.0722491554838659e-07 0.0000000000000000 0.29166666666666669 0.0000000000000000 0.29166167660862669 -1.0013547202977802e-05 
0.29166666666666669 0.010416666666666666 0.0000000000000000 -4.7183296950412505e-06 -9.9137675703123601e-06 0.68248864066030956 2.0850269264174799e-07 -3.9460749286447803e-08 0.29166666666666669 0.010416666666666666 0.29166194833697162 0.010406752899096353 
0.30208333333333331 0.0000000000000000 0.0000000000000000 -5.0885178114219308e-06 -1.0289998216360927e-05 0.65496896665714055 2.0383634671505969e-07 0.0000000000000000 0.30208333333333331 0.0000000000000000 0.30207824481552187 -1.0289998216360927e-05 
0.30208333333333331 0.010416666666666666 0.0000000000000000 -4.8167813713791646e-06 -1.0193343798439033e-05 0.66097741671117050 2.0472863366737948e-07 -3.7978092057718712e-08 0.30208333333333331 0.010416666666666666 0.30207851655196194 0.010406473322868226 
0.31250000000000000 0.0000000000000000 0.0000000000000000 -5.1838821081651430e-06 -1.0566408469829245e-05 0.63395626012207795 2.0062148898533472e-07 0.0000000000000000 0.31250000000000000 0.0000000000000000 0.31249481611789182 -1.0566408469829245e-05 
0.31250000000000000 0.010416666666666666 0.0000000000000000 -4.9121222475240990e-06 -1.0472830893975841e-05 0.63984828451232401 2.0117868626302404e-07 -3.6932546161831354e-08 0.31250000000000000 0.010416666666666666 0.31249508787775243 0.010406193835772690 
0.32291666666666669 0.0000000000000000 0.0000000000000000 -5.2761920473813927e-06 -1.0842790408882504e-05 0.61328270728580303 1.9754596340887076e-07 0.0000000000000000 0.32291666666666669 0.0000000000000000 0.32291139047461931 -1.0842790408882504e-05 
0.32291666666666669 0.010416666666666666 0.0000000000000000 -5.0044020676660922e-06 -1.0752243471917969e-05 0.61908000482143566 1.9781152278794553e-07 -3.6266691807311708e-08 0.32291666666666669 0.010416666666666666 0.32291166226459905 0.010405914423194747 
0.33333333333333331 0.0000000000000000 0.0000000000000000 -5.3654875744990682e-06 -1.1119147942105186e-05 0.59293407806065879 1.9458089617997193e-07 0.0000000000000000 0.33333333333333331 0.0000000000000000 0.33332796784575880 -1.1119147942105186e-05 
0.33333333333333331 0.010416666666666666 0.0000000000000000 -5.0936683142628005e-06 -1.1031587157896598e-05 0.59865529116419880 1.9459247417976988e-07 -3.5930804948692925e-08 0.33333333333333331 0.010416666666666666 0.33332823966501907 0.010405635079508769 
0.34375000000000000 0.0000000000000000 0.0000000000000000 -5.4518077801130525e-06 -1.1395477532940701e-05 0.57289905356402038 1.9170194854125424e-07 0.0000000000000000 0.34375000000000000 0.0000000000000000 0.34374454819221989 -1.1395477532940701e-05 
0.34375000000000000 0.010416666666666666 0.0000000000000000 -5.1799666669731887e-06 -1.1310859751507717e-05 0.57856018079642690 1.9149233991139921e-07 -3.5881619548762813e-08 0.34375000000000000 0.010416666666666666 0.34374482003333301 0.010405355806915158 
0.35416666666666669 0.0000000000000000 0.0000000000000000 -5.5351911672817331e-06 -1.1671769148350117e-05 0.55316877369161510 1.8888853868669687e-07 0.0000000000000000 0.35416666666666669 0.0000000000000000 0.35416113147549938 -1.1671769148350117e-05 
0.35416666666666669 0.010416666666666666 0.0000000000000000 -5.2633413894760988e-06 -1.1590052234174291e-05 0.55878351638033641 1.8848643702136999e-07 -3.6081317977984859e-08 0.35416666666666669 0.010416666666666666 0.35416140332527718 0.010405076614432492 
0.36458333333333331 0.0000000000000000 0.0000000000000000 -5.6156758775045275e-06 -1.1948007087158005e-05 0.53373646152355958 1.8612321286553938e-07 0.0000000000000000 0.36458333333333331 0.0000000000000000 0.36457771765745584 -1.1948007087158005e-05 
0.36458333333333331 0.010416666666666666 0.0000000000000000 -5.3438356565550744e-06 -1.1869149646730911e-05 0.53931651650348400 1.8555383438369489e-07 -3.6496702269489644e-08 0.36458333333333331 0.010416666666666666 0.36457798949767678 0.010404797517019936 
0.37500000000000000 0.0000000000000000 0.0000000000000000 -5.6932998821216835e-06 -1.2224170706693130e-05 0.51459711001378039 1.8339113338491216e-07 0.0000000000000000 0.37500000000000000 0.0000000000000000 0.37499430670011785 -1.2224170706693130e-05 
0.37500000000000000 0.010416666666666666 0.0000000000000000 -5.4214918314559013e-06 -1.2148131857204334e-05 0.52015241801718004 1.8267673168646892e-07 -3.7098509698422108e-08 0.37500000000000000 0.010416666666666666 0.37499457850816853 0.010404518534809462 
0.38541666666666669 0.0000000000000000 0.0000000000000000 -5.7681011446706187e-06 -1.2500235063007579e-05 0.49574721952456002 1.8067965886712195e-07 0.0000000000000000 0.38541666666666669 0.0000000000000000 0.38541089856552202 -1.2500235063007579e-05 
0.38541666666666669 0.010416666666666666 0.0000000000000000 -5.4963517016620567e-06 -1.2426974235543469e-05 0.50128617684104759 1.7983995229923296e-07 -3.7860844196974296e-08 0.38541666666666669 0.010416666666666666 0.38541117031496502 0.010404239692431122 
0.39583333333333331 0.0000000000000000 0.0000000000000000 -5.8401177587744461e-06 -1.2776171477307254e-05 0.47718457714764950 1.7797799786251673e-07 0.0000000000000000 0.39583333333333331 0.0000000000000000 0.39582749321557453 -1.2776171477307254e-05 
0.39583333333333331 0.010416666666666666 0.0000000000000000 -5.5684566797634624e-06 -1.2705648249097918e-05 0.48271421668176012 1.7703052642363360e-07 -3.8760701265809758e-08 0.39583333333333331 0.010416666666666666 0.39582776487665355 0.010403961018417568 
0.40625000000000000 0.0000000000000000 0.0000000000000000 -5.9093880653713205e-06 -1.3051948039099220e-05 0.45890807058647543 1.7527692118512317e-07 0.0000000000000000 0.40625000000000000 0.0000000000000000 0.40624409061193462 -1.3051948039099220e-05 
0.40625000000000000 0.010416666666666666 0.0000000000000000 -5.6378479749254151e-06 -1.2984121990282528e-05 0.46443421726817374 1.7423734633378446e-07 -3.9777568762638629e-08 0.40625000000000000 0.010416666666666666 0.40624436215202503 0.010403682544676383 
0.41666666666666669 0.0000000000000000 0.0000000000000000 -5.9759507524761207e-06 -1.3327530054844402e-05 0.44091753079736246 1.7256852158646653e-07 0.0000000000000000 0.41666666666666669 0.0000000000000000 0.41666069071591422 -1.3327530054844402e-05 
0.41666666666666669 0.010416666666666666 0.0000000000000000 -5.7045667395287681e-06 -1.3262360645966103e-05 0.44644493537393631 1.7145087952950317e-07 -4.0893089532236805e-08 0.41666666666666669 0.010416666666666666 0.41666096209992715 0.010403404306020700 
0.42708333333333331 0.0000000000000000 0.0000000000000000 -6.0398449401649725e-06 -1.3602880449512906e-05 0.42321359869881275 1.6984601182353293e-07 0.0000000000000000 0.42708333333333331 0.0000000000000000 0.42707729348839313 -1.3602880449512906e-05 
0.42708333333333331 0.010416666666666666 0.0000000000000000 -5.7686541947986428e-06 -1.3540326916588639e-05 0.42874605320012166 1.6866292877330999e-07 -4.2090774708463238e-08 0.42708333333333331 0.010416666666666666 0.42707756467913854 0.010403126339750076 
0.43750000000000000 0.0000000000000000 0.0000000000000000 -6.1011102530649079e-06 -1.3877960127304609e-05 0.40579761213206861 1.6710355409815641e-07 0.0000000000000000 0.43750000000000000 0.0000000000000000 0.43749389888974693 -1.3877960127304609e-05 
0.43750000000000000 0.010416666666666666 0.0000000000000000 -5.8301517386271099e-06 -1.3817981391764707e-05 0.41133804971158133 1.6586643026566530e-07 -4.3355758665758205e-08 0.43750000000000000 0.010416666666666666 0.43749416984826134 0.010402848685274900 
0.44791666666666669 0.0000000000000000 0.0000000000000000 -6.1597868822949211e-06 -1.4152728296869208e-05 0.38867150994636740 1.6433611527679884e-07 0.0000000000000000 0.44791666666666669 0.0000000000000000 0.44791050687978440 -1.4152728296869208e-05 
0.44791666666666669 0.010416666666666666 0.0000000000000000 -5.8891010382960531e-06 -1.4095282888113177e-05 0.39422209132697034 1.6305528310673012e-07 -4.4674588370159469e-08 0.44791666666666669 0.010416666666666666 0.44791077756562842 0.010402571383778552 
0.45833333333333331 0.0000000000000000 0.0000000000000000 -6.2159156385272554e-06 -1.4427142765598545e-05 0.37183775063148622 1.6153934345354215e-07 0.0000000000000000 0.45833333333333331 0.0000000000000000 0.45832711741769477 -1.4427142765598545e-05 
0.45833333333333331 0.010416666666666666 0.0000000000000000 -5.9455441103960847e-06 -1.4372188754221196e-05 0.37739993900180629 1.6022420453419985e-07 -4.6035041218867852e-08 0.45833333333333331 0.010416666666666666 0.45832738778922294 0.010402294477912445 
0.46875000000000000 0.0000000000000000 0.0000000000000000 -6.2695379976059745e-06 -1.4701160206934621e-05 0.35529924335869095 1.5870946227825133e-07 0.0000000000000000 0.46875000000000000 0.0000000000000000 0.46874373046200241 -1.4701160206934621e-05 
0.46875000000000000 0.010416666666666666 0.0000000000000000 -5.9995233898982665e-06 -1.4648655146965027e-05 0.36087386925459392 1.5736860657341085e-07 -4.7425966547559949e-08 0.46875000000000000 0.010416666666666666 0.46874400047661008 0.010402018011519701 
0.47916666666666669 0.0000000000000000 0.0000000000000000 -6.3206961399663112e-06 -1.4974736404117540e-05 0.33905928964231064 1.5584318021865496e-07 0.0000000000000000 0.47916666666666669 0.0000000000000000 0.47916034597052670 -1.4974736404117540e-05 
0.47916666666666669 0.010416666666666666 0.0000000000000000 -6.0510817900527928e-06 -1.4924637282844885e-05 0.34464660709445988 1.5448449058676770e-07 -4.8837146869573205e-08 0.47916666666666669 0.010416666666666666 0.47916061558487666 0.010401742029383822 
0.48958333333333331 0.0000000000000000 0.0000000000000000 -6.3694329849336621e-06 -1.5247826473367005e-05 0.32312153411756833 1.5293761241014964e-07 0.0000000000000000 0.48958333333333331 0.0000000000000000 0.48957696390034838 -1.5247826473367005e-05 
0.48958333333333331 0.010416666666666666 0.0000000000000000 -6.1002627545521978e-06 -1.5200089667524645e-05 0.32872126913730920 1.5156835688410336e-07 -5.0259175573573224e-08 0.48958333333333331 0.010416666666666666 0.48957723307057871 0.010401466576999141 
0.50000000000000000 0.0000000000000000 0.0000000000000000 -6.4157922208421453e-06 -1.5520385069134972e-05 0.30748992315847345 1.4999021326000173e-07 0.0000000000000000 0.50000000000000000 0.0000000000000000 0.49999358420777917 -1.5520385069134972e-05 
0.50000000000000000 0.010416666666666666 0.0000000000000000 -6.1471103031968028e-06 -1.5474966306380664e-05 0.31310131546298148 1.4861712711508965e-07 -5.1683348391598696e-08 0.50000000000000000 0.010416666666666666 0.49999385288969672 0.010401191700360286 
0.51041666666666663 0.0000000000000000 0.0000000000000000 -6.4598183317920538e-06 -1.5792366573768194e-05 0.29216867024387566 1.4699871830606198e-07 0.0000000000000000 0.51041666666666663 0.0000000000000000 0.51041020684833482 -1.5792366573768194e-05 
0.51041666666666663 0.010416666666666666 0.0000000000000000 -6.1916690721303287e-06 -1.5749220898542084e-05 0.29779050897981002 1.4562807759573865e-07 -5.3101566398515544e-08 0.51041666666666663 0.010416666666666666 0.51041047499759451 0.010400917445768125 
0.52083333333333337 0.0000000000000000 0.0000000000000000 -6.5015566217617933e-06 -1.6063725273674988e-05 0.27716222712990152 1.4396109404716880e-07 0.0000000000000000 0.52083333333333337 0.0000000000000000 0.52082683177671163 -1.6063725273674988e-05 
0.52083333333333337 0.010416666666666666 0.0000000000000000 -6.2339843495674687e-06 -1.6022807016640634e-05 0.28279288123637741 1.4259878206954106e-07 -5.4506248656658459e-08 0.52083333333333337 0.010416666666666666 0.52082709934898386 0.010400643859650026 
0.53125000000000000 0.0000000000000000 0.0000000000000000 -6.5410532366991064e-06 -1.6334415523885434e-05 0.26247526000641774 1.4087549485732851e-07 0.0000000000000000 0.53125000000000000 0.0000000000000000 0.53124345894676328 -1.6334415523885434e-05 
0.53125000000000000 0.010416666666666666 0.0000000000000000 -6.2741021078094060e-06 -1.6295678274267192e-05 0.26811270376055235 1.3952706270827623e-07 -5.5890252924002461e-08 0.53125000000000000 0.010416666666666666 0.53124372589789204 0.010400370988392400 
0.54166666666666663 0.0000000000000000 0.0000000000000000 -6.5783551851354854e-06 -1.6604391902725572e-05 0.24811262991196167 1.3774022612194171e-07 0.0000000000000000 0.54166666666666663 0.0000000000000000 0.54166008831148149 -1.6604391902725572e-05 
0.54166666666666663 0.010416666666666666 0.0000000000000000 -6.3120690322326516e-06 -1.6567788482951242e-05 0.25375446411786823 1.3641094837777263e-07 -5.7246803109569757e-08 0.54166666666666663 0.010416666666666666 0.54166035459763429 0.010400098878183715 
0.55208333333333337 0.0000000000000000 0.0000000000000000 -6.6135103577956583e-06 -1.6873609358187589e-05 0.23407937675851467 1.3455371301266719e-07 0.0000000000000000 0.55208333333333337 0.0000000000000000 0.55207671982297557 -1.6873609358187589e-05 
0.55208333333333337 0.010416666666666666 0.0000000000000000 -6.3479325478390313e-06 -1.6839091800330757e-05 0.23972284597175850 1.3324863940986907e-07 -5.8569422311806780e-08 0.55208333333333337 0.010416666666666666 0.55207698540078554 0.010399827574866335 
0.56250000000000000 0.0000000000000000 0.0000000000000000 -6.6465675466082694e-06 -1.7142023347465172e-05 0.22038070637678750 1.3131447442577430e-07 0.0000000000000000 0.56250000000000000 0.0000000000000000 0.56249335343245344 -1.7142023347465172e-05 
0.56250000000000000 0.010416666666666666 0.0000000000000000 -6.3817408438669512e-06 -1.7109542871059160e-05 0.22602271249877867 1.3003847827364292e-07 -5.9851870506665956e-08 0.56250000000000000 0.010416666666666666 0.56249361825915611 0.010399557123795608 
0.57291666666666663 0.0000000000000000 0.0000000000000000 -6.6775764634632306e-06 -1.7409589971033113e-05 0.20702198003742023 1.2802110171316095e-07 0.0000000000000000 0.57291666666666663 0.0000000000000000 0.57290998909020319 -1.7409589971033113e-05 
0.57291666666666663 0.010416666666666666 0.0000000000000000 -6.4135428968845271e-06 -1.7379096961900349e-05 0.21265909256551105 1.2677892572281670e-07 -6.1088086005769014e-08 0.57291666666666663 0.010416666666666666 0.57291025312376975 0.010399287569704764 
0.58333333333333337 0.0000000000000000 0.0000000000000000 -6.7065877590039798e-06 -1.7676266102578647e-05 0.19400870593566177 1.2467224201219367e-07 0.0000000000000000 0.58333333333333337 0.0000000000000000 0.58332662674557434 -1.7676266102578647e-05 
0.58333333333333337 0.010416666666666666 0.0000000000000000 -6.4433884927112978e-06 -1.7647710092386440e-05 0.19963716911414267 1.2346854206582884e-07 -6.2272129988374948e-08 0.58333333333333337 0.010416666666666666 0.58332688994484061 0.010399018956574279 
0.59375000000000000 0.0000000000000000 0.0000000000000000 -6.7336530416881582e-06 -1.7942009516039441e-05 0.18134653214649354 1.2126658597646736e-07 0.0000000000000000 0.59375000000000000 0.0000000000000000 0.59374326634695829 -1.7942009516039441e-05 
0.59375000000000000 0.010416666666666666 0.0000000000000000 -6.4713282474455722e-06 -1.7915339162357965e-05 0.18696226923008441 1.2010597340032658e-07 -6.3398133478157579e-08 0.59375000000000000 0.010416666666666666 0.59374352867175251 0.010398751327504308 
0.60416666666666663 0.0000000000000000 0.0000000000000000 -6.7588248972964238e-06 -1.8206779010964011e-05 0.16904124056566963 1.1780285995708872e-07 0.0000000000000000 0.60416666666666663 0.0000000000000000 0.60415990784176932 -1.8206779010964011e-05 