# For a description of the Tecplot format see the Tecplot User's guide.
#
Variables=x,y,z,s_u,s_v,s_p,x,y,ref_u,ref_v,u,v
Zone f=fepoint, n=9409, e=18432, et=quadrilateral, c=black
0.00000 0.00000 0.00000 0.0000000000000000 0.0000000000000000 3.6737685919338370 0.0000000000000000 0.0000000000000000 0.0000000000000000 0.0000000000000000 0.0000000000000000 0.0000000000000000 
0.010416666666666666 0.0000000000000000 0.0000000000000000 -5.6047960721820501e-07 -1.1931280581603552e-06 3.2014861120857336 8.1925037095739857e-06 0.0000000000000000 0.010416666666666666 0.0000000000000000 0.010416106187059447 -1.1931280581603552e-06 
0.010416666666666666 0.010416666666666666 0.0000000000000000 -1.5248904964352145e-07 -7.7489045634962702e-07 3.2711898424709198 5.9096181297510973e-06 2.3461087576613910e-06 0.010416666666666666 0.010416666666666666 0.010416514177617022 0.010415891776210317 
0.0000000000000000 0.010416666666666666 0.0000000000000000 0.0000000000000000 0.0000000000000000 3.4462369698506841 0.0000000000000000 4.5404239501896994e-06 0.0000000000000000 0.010416666666666666 0.0000000000000000 0.010416666666666666 
0.020833333333333332 0.0000000000000000 0.0000000000000000 -9.1624331580398145e-07 -1.8564902945956838e-06 2.6552704591135425 6.0069763888210076e-06 0.0000000000000000 0.020833333333333332 0.0000000000000000 0.020832417090017527 -1.8564902945956838e-06 
0.020833333333333332 0.010416666666666666 0.0000000000000000 -4.9811963013356111e-07 -1.5137782801191665e-06 2.7657604707216397 3.9947670300286131e-06 -5.8192973160702674e-07 0.020833333333333332 0.010416666666666666 0.020832835213703198 0.010415152888386547 
0.031250000000000000 0.0000000000000000 0.0000000000000000 -1.1987951421450091e-06 -2.3712159922991943e-06 2.2274140995650211 3.6547733012753130e-06 0.0000000000000000 0.031250000000000000 0.0000000000000000 0.031248801204857856 -2.3712159922991943e-06 
0.031250000000000000 0.010416666666666666 0.0000000000000000 -7.9929383005206317e-07 -2.0796794328159486e-06 2.3396719770226113 3.3465653285669703e-06 -5.2481256209097428e-07 0.031250000000000000 0.010416666666666666 0.031249200706169943 0.010414586987233852 
0.041666666666666664 0.0000000000000000 0.0000000000000000 -1.4445480278832770e-06 -2.8145295558209948e-06 1.9318855972213094 2.4276490908140400e-06 0.0000000000000000 0.041666666666666664 0.0000000000000000 0.041665222118638781 -2.8145295558209948e-06 
0.041666666666666664 0.010416666666666666 0.0000000000000000 -1.0669808934991556e-06 -2.5566538166939514e-06 2.0249352551566324 2.5087095808612354e-06 -7.3293221225234029e-07 0.041666666666666664 0.010416666666666666 0.041665599685773165 0.010414110012849974 
0.052083333333333336 0.0000000000000000 0.0000000000000000 -1.6681713386313603e-06 -3.2145381950115040e-06 1.7237375496814555 1.6964281062348107e-06 0.0000000000000000 0.052083333333333336 0.0000000000000000 0.052081665161994702 -3.2145381950115040e-06 
0.052083333333333336 0.010416666666666666 0.0000000000000000 -1.3104850905002065e-06 -2.9800903583752250e-06 1.7970924446932026 1.8560323564846406e-06 -6.2789250220311825e-07 0.052083333333333336 0.010416666666666666 0.052082022848242836 0.010413686576308291 
0.062500000000000000 0.0000000000000000 0.0000000000000000 -1.8767670643803311e-06 -3.5854027824056967e-06 1.5723410627735959 1.2391497570242775e-06 0.0000000000000000 0.062500000000000000 0.0000000000000000 0.062498123232935611 -3.5854027824056967e-06 
0.062500000000000000 0.010416666666666666 0.0000000000000000 -1.5357604613940194e-06 -3.3681853871851422e-06 1.6296405419645252 1.3852764586778142e-06 -5.2824776813344733e-07 0.062500000000000000 0.010416666666666666 0.062498464239538608 0.010413298481279481 
0.072916666666666671 0.0000000000000000 0.0000000000000000 -2.0741192792086144e-06 -3.9354042686885491e-06 1.4580697986626194 9.4551307853286969e-07 0.0000000000000000 0.072916666666666671 0.0000000000000000 0.072914592547387469 -3.9354042686885491e-06 
0.072916666666666671 0.010416666666666666 0.0000000000000000 -1.7467075396504111e-06 -3.7314989500419984e-06 1.5032526114632276 1.0674846188888557e-06 -4.3032367554924999e-07 0.072916666666666671 0.010416666666666666 0.072914919959127023 0.010412935167716623 
0.083333333333333329 0.0000000000000000 0.0000000000000000 -2.2624462319625033e-06 -4.2698624997857806e-06 1.3684796241646462 7.5247568767849414e-07 0.0000000000000000 0.083333333333333329 0.0000000000000000 0.083331070887101372 -4.2698624997857806e-06 
0.083333333333333329 0.010416666666666666 0.0000000000000000 -1.9460066012402869e-06 -4.0766860778871769e-06 1.4046478923068344 8.4908351197137713e-07 -3.4918179162677976e-07 0.083333333333333329 0.010416666666666666 0.083331387326732079 0.010412589980588778 
0.093750000000000000 0.0000000000000000 0.0000000000000000 -2.4431591450920090e-06 -4.5924139266105212e-06 1.2956690901232435 6.2132316837309531e-07 0.0000000000000000 0.093750000000000000 0.0000000000000000 0.093747556840854909 -4.5924139266105212e-06 
0.093750000000000000 0.010416666666666666 0.0000000000000000 -2.1355595394337781e-06 -4.4081968824908572e-06 1.3251068703436781 6.9669949236714367e-07 -2.8324669496772204e-07 0.093750000000000000 0.010416666666666666 0.093747864440460571 0.010412258469784176 
0.10416666666666667 0.0000000000000000 0.0000000000000000 -2.6172198141386218e-06 -4.9056629890421617e-06 1.2345767212278060 5.2927769844892868e-07 0.0000000000000000 0.10416666666666667 0.0000000000000000 0.10416404944685254 -4.9056629890421617e-06 
0.10416666666666667 0.010416666666666666 0.0000000000000000 -2.3167536798005556e-06 -4.7291497791937973e-06 1.2589277012481048 5.8812083195918953e-07 -2.3041443390344531e-07 0.10416666666666667 0.010416666666666666 0.10416434991298686 0.010411937516887472 
0.11458333333333333 0.0000000000000000 0.0000000000000000 -2.7853202277994259e-06 -5.2115415656643338e-06 1.1819007181079684 4.6264328574769289e-07 0.0000000000000000 0.11458333333333333 0.0000000000000000 0.11458054801310553 -5.2115415656643338e-06 
0.11458333333333333 0.010416666666666666 0.0000000000000000 -2.4906251330704455e-06 -5.0418129075749720e-06 1.2023461847404355 5.0890118648549734e-07 -1.8801369517518683e-07 0.11458333333333333 0.010416666666666666 0.11458084270820025 0.010411624853759091 
0.12500000000000000 0.0000000000000000 0.0000000000000000 -2.9479792255606442e-06 -5.5115222627173710e-06 1.1354368588848123 4.1300513215725218e-07 0.0000000000000000 0.12500000000000000 0.0000000000000000 0.12499705202077444 -5.5115222627173710e-06 
0.12500000000000000 0.010416666666666666 0.0000000000000000 -2.6579637220488189e-06 -5.3478863741840196e-06 1.1528346916666024 4.4971052520275790e-07 -1.5379274321352658e-07 0.12500000000000000 0.010416666666666666 0.12499734203627795 0.010411318780292484 
0.13541666666666666 0.0000000000000000 0.0000000000000000 -3.1055980333255689e-06 -5.8067517061927398e-06 1.0936755976959374 3.7507500860953152e-07 0.0000000000000000 0.13541666666666666 0.0000000000000000 0.13541356106863334 -5.8067517061927398e-06 
0.13541666666666666 0.010416666666666666 0.0000000000000000 -2.8193824852129085e-06 -5.6486755444585955e-06 1.1086589504598992 4.0448170543110014e-07 -1.2597557616559217e-07 0.13541666666666666 0.010416666666666666 0.13541384728418146 0.010411017991122207 
0.14583333333333334 0.0000000000000000 0.0000000000000000 -3.2584943010134536e-06 -6.0981376840766421e-06 1.0555558614360987 3.4544068274098367e-07 0.0000000000000000 0.14583333333333334 0.0000000000000000 0.14583007483903232 -6.0981376840766421e-06 
0.14583333333333334 0.010416666666666666 0.0000000000000000 -2.9753650034150810e-06 -5.9452020778522287e-06 1.0686006933844912 3.6920669446093218e-07 -1.0320521966336073e-07 0.14583333333333334 0.010416666666666666 0.14583035796832997 0.010410721464588811 
0.15625000000000000 0.0000000000000000 0.0000000000000000 -3.4069242116250669e-06 -6.3864082961810092e-06 1.0203129502068080 3.2183771155992137e-07 0.0000000000000000 0.15625000000000000 0.0000000000000000 0.15624659307578836 -6.3864082961810092e-06 
0.15625000000000000 0.010416666666666666 0.0000000000000000 -3.1262983757783811e-06 -6.2382777610429541e-06 1.0317837224035407 3.4118576157696388e-07 -8.4452977302235733e-08 0.15625000000000000 0.010416666666666666 0.15624687370162424 0.010410428388905622 
0.16666666666666666 0.0000000000000000 0.0000000000000000 -3.5510975640802532e-06 -6.6721534226568445e-06 0.98738299480251401 3.0272056682051668e-07 0.0000000000000000 0.16666666666666666 0.0000000000000000 0.16666311556910257 -6.6721534226568445e-06 
0.16666666666666666 0.010416666666666666 0.0000000000000000 -3.2724966696398662e-06 -6.5285552690143097e-06 0.99756368088704150 3.1856072875436056e-07 -6.8935885517166364e-08 0.16666666666666666 0.010416666666666666 0.16666339416999701 0.010410138111397653 
0.17708333333333334 0.0000000000000000 0.0000000000000000 -3.6911884761868979e-06 -6.9558546128828530e-06 0.95634169227577193 2.8700568891894536e-07 0.0000000000000000 0.17708333333333334 0.0000000000000000 0.17707964214485716 -6.9558546128828530e-06 
0.17708333333333334 0.010416666666666666 0.0000000000000000 -3.4142179037592571e-06 -6.8165641067549784e-06 0.96545705398066417 3.0002385816534610e-07 -5.6052434219251591e-08 0.17708333333333334 0.010416666666666666 0.17707991911542956 0.010409850102559912 
0.18750000000000000 0.0000000000000000 0.0000000000000000 -3.8273432167748622e-06 -7.2379071480363215e-06 0.92686410640362638 2.7391433900471391e-07 0.0000000000000000 0.18750000000000000 0.0000000000000000 0.18749617265678323 -7.2379071480363215e-06 
0.18750000000000000 0.010416666666666666 0.0000000000000000 -3.5516765537180186e-06 -7.1027367250870300e-06 0.93509452068714616 2.8463466982260899e-07 -4.5335050476327738e-08 0.18750000000000000 0.010416666666666666 0.18749644832344628 0.010409563929941579 
0.19791666666666666 0.0000000000000000 0.0000000000000000 -3.9596860754771633e-06 -7.5186366655154829e-06 0.89869764910155114 2.6287425253502740e-07 0.0000000000000000 0.19791666666666666 0.0000000000000000 0.19791270698059119 -7.5186366655154829e-06 
0.19791666666666666 0.010416666666666666 0.0000000000000000 -3.6850529009510210e-06 -7.3874279303528164e-06 0.90618962897430511 2.7170295556343748e-07 -3.6415769883566712e-08 0.19791666666666666 0.010416666666666666 0.19791298161376569 0.010409279238736314 
0.20833333333333334 0.0000000000000000 0.0000000000000000 -4.0883238452036177e-06 -7.7983119118419279e-06 0.87164348353713950 2.5345655441458513e-07 0.0000000000000000 0.20833333333333334 0.0000000000000000 0.20832924500948813 -7.7983119118419279e-06 
0.20833333333333334 0.010416666666666666 0.0000000000000000 -3.8145001202958488e-06 -7.6709295969009609e-06 0.87851728373941718 2.6071271870330884e-07 -2.9001527484527084e-08 0.20833333333333334 0.010416666666666666 0.20832951883321305 0.010408995737069765 
0.21875000000000000 0.0000000000000000 0.0000000000000000 -4.2133492974485111e-06 -8.0771546801294591e-06 0.84554343027938950 2.4533426575687275e-07 0.0000000000000000 0.21875000000000000 0.0000000000000000 0.21874578665070255 -8.0771546801294591e-06 
0.21875000000000000 0.010416666666666666 0.0000000000000000 -3.9401497225898004e-06 -7.9534820127176069e-06 0.85189864639324187 2.5127173854633843e-07 -2.2856282244844578e-08 0.21875000000000000 0.010416666666666666 0.21874605985027742 0.010408713184653947 
0.22916666666666666 0.0000000000000000 0.0000000000000000 -4.3348439108878394e-06 -8.3553476615525521e-06 0.82027055248545777 2.3825433726120811e-07 0.0000000000000000 0.22916666666666666 0.0000000000000000 0.22916233182275578 -8.3553476615525521e-06 
0.22916666666666666 0.010416666666666666 0.0000000000000000 -4.0621157838247583e-06 -8.2352827620440107e-06 0.82619031374617469 2.4307743825107910e-07 -1.7787955116255695e-08 0.22916666666666666 0.010416666666666666 0.22916260455088280 0.010408431383904624 
0.23958333333333334 0.0000000000000000 0.0000000000000000 -4.4528800369038267e-06 -8.6330407256279144e-06 0.79572225621837733 2.3201836012047007e-07 0.0000000000000000 0.23958333333333334 0.0000000000000000 0.23957888045329645 -8.6330407256279144e-06 
0.23958333333333334 0.010416666666666666 0.0000000000000000 -4.1804982673338875e-06 -8.5164937734574697e-06 0.80127641464878119 2.3589331661851194e-07 -1.3638766805361021e-08 0.23958333333333334 0.010416666666666666 0.23957915283506601 0.010408150172893206 
0.25000000000000000 0.0000000000000000 0.0000000000000000 -4.5675226344885149e-06 -8.9103559996828657e-06 0.77181514687264252 2.2646897706686529e-07 0.0000000000000000 0.25000000000000000 0.0000000000000000 0.24999543247736553 -8.9103559996828657e-06 
0.25000000000000000 0.010416666666666666 0.0000000000000000 -4.2953856596887591e-06 -8.7972469796030719e-06 0.77706273745858034 2.2953235858799984e-07 -1.0277997619055509e-08 0.25000000000000000 0.010416666666666666 0.24999570461434031 0.010407869419687063 
0.26041666666666669 0.0000000000000000 0.0000000000000000 -4.6788306718152463e-06 -9.1873920185490145e-06 0.74848113586541853 2.2148012398906983e-07 0.0000000000000000 0.26041666666666669 0.0000000000000000 0.26041198783599490 -9.1873920185490145e-06 
0.26041666666666669 0.010416666666666666 0.0000000000000000 -4.4068570812755243e-06 -9.0776489112786402e-06 0.75347229858596965 2.2384514684173553e-07 -7.5964933010242257e-09 0.26041666666666669 0.010416666666666666 0.26041225980958543 0.010407589017755388 
0.27083333333333331 0.0000000000000000 0.0000000000000000 -4.7868582670156610e-06 -9.4642271458630161e-06 0.72566445336028851 2.1694990114688184e-07 0.0000000000000000 0.27083333333333331 0.0000000000000000 0.27082854647506632 -9.4642271458630161e-06 
0.27083333333333331 0.010416666666666666 0.0000000000000000 -4.5149839904059529e-06 -9.3577844631554692e-06 0.73044195195675199 2.1871120092361184e-07 -5.5024459855812114e-09 0.27083333333333331 0.010416666666666666 0.27082881834934286 0.010407308882203510 
0.28125000000000000 0.0000000000000000 0.0000000000000000 -4.8916556229355549e-06 -9.7409224186505103e-06 0.70331932813107478 2.1279528508434005e-07 0.0000000000000000 0.28125000000000000 0.0000000000000000 0.28124510834437705 -9.7409224186505103e-06 
0.28125000000000000 0.010416666666666666 0.0000000000000000 -4.6198315697410359e-06 -9.6377200082006314e-06 0.70791976257102129 2.1403257237411768e-07 -3.9181186936435071e-09 0.28125000000000000 0.010416666666666666 0.28124538016843026 0.010407028946658466 
0.29166666666666669 0.0000000000000000 0.0000000000000000 -4.9932697976917791e-06 -1.0017523930840787e-05 0.68140816576251595 2.0894815188784246e-07 0.0000000000000000 0.29166666666666669 0.0000000000000000 0.29166167339686899 -1.0017523930840787e-05 
0.29166666666666669 0.010416666666666666 0.0000000000000000 -4.7214598620645464e-06 -9.9175059946897125e-06 0.68586294918371715 2.0972904334363222e-07 -2.7772768665535289e-09 0.29166666666666669 0.010416666666666666 0.29166194520680461 0.010406749160671976 
0.30208333333333331 0.0000000000000000 0.0000000000000000 -5.0917453432856040e-06 -1.0294064844874206e-05 0.65990010394141663 2.0535224952637793e-07 0.0000000000000000 0.30208333333333331 0.0000000000000000 0.30207824158799002 -1.0294064844874206e-05 
0.30208333333333331 0.010416666666666666 0.0000000000000000 -4.8199247065516216e-06 -1.0197179128264133e-05 0.66423625649284246 2.0573448249230540e-07 -2.0231559385718015e-09 0.30208333333333331 0.010416666666666666 0.30207851340862674 0.010406469487538402 
0.31250000000000000 0.0000000000000000 0.0000000000000000 -5.1871248373819848e-06 -1.0570567100844151e-05 0.63876985645367335 2.0196086684949377e-07 0.0000000000000000 0.31250000000000000 0.0000000000000000 0.31249481287516262 -1.0570567100844151e-05 
0.31250000000000000 0.010416666666666666 0.0000000000000000 -4.9152785149351040e-06 -1.0476764218284860e-05 0.64301065535302870 2.0199404787164350e-07 -1.6068396918735526e-09 0.31250000000000000 0.010416666666666666 0.31249508472148507 0.010406189902448381 
0.32291666666666669 0.0000000000000000 0.0000000000000000 -5.2794493279731736e-06 -1.0847042877761969e-05 0.61799678059445817 1.9873502046729527e-07 0.0000000000000000 0.32291666666666669 0.0000000000000000 0.32291138721733870 -1.0847042877761969e-05 
0.32291666666666669 0.010416666666666666 0.0000000000000000 -5.0075709182078364e-06 -1.0756275750394871e-05 0.62216229624165453 1.9846201761934703e-07 -1.4859564757141090e-09 0.32291666666666669 0.010416666666666666 0.32291165909574854 0.010405910390916271 
0.33333333333333331 0.0000000000000000 0.0000000000000000 -5.3687587065413321e-06 -1.1123495850228265e-05 0.59756411917269681 1.9564203106379461e-07 0.0000000000000000 0.33333333333333331 0.0000000000000000 0.33332796457462677 -1.1123495850228265e-05 
0.33333333333333331 0.010416666666666666 0.0000000000000000 -5.0968493078943011e-06 -1.1035719234099693e-05 0.60167166020415375 1.9510009141508281e-07 -1.6236235565516310e-09 0.33333333333333331 0.010416666666666666 0.33332823648402549 0.010405630947432567 
0.34375000000000000 0.0000000000000000 0.0000000000000000 -5.4550920221849011e-06 -1.1399922275105296e-05 0.57745838020754403 1.9265439557816468e-07 0.0000000000000000 0.34375000000000000 0.0000000000000000 0.34374454490797773 -1.1399922275105296e-05 
0.34375000000000000 0.010416666666666666 0.0000000000000000 -5.1831592909022867e-06 -1.1315092364170715e-05 0.58152286521037000 1.9187604869035041e-07 -1.9875867265641092e-09 0.34375000000000000 0.010416666666666666 0.34374481684070912 0.010405351574302495 
0.35416666666666669 0.0000000000000000 0.0000000000000000 -5.5384877467363543e-06 -1.1676311936049089e-05 0.55766882614154711 1.8974888637094736e-07 0.0000000000000000 0.35416666666666669 0.0000000000000000 0.35416112817891993 -1.1676311936049089e-05 
0.35416666666666669 0.010416666666666666 0.0000000000000000 -5.2665450731125688e-06 -1.1594386026966207e-05 0.56170309586662248 1.8876267983991158e-07 -2.5495146709815881e-09 0.35416666666666669 0.010416666666666666 0.35416140012159358 0.010405072280639700 
0.36458333333333331 0.0000000000000000 0.0000000000000000 -5.6189839989994587e-06 -1.1952648968495210e-05 0.53818705085918161 1.8690582602712422e-07 0.0000000000000000 0.36458333333333331 0.0000000000000000 0.36457771434933434 -1.1952648968495210e-05 
0.36458333333333331 0.010416666666666666 0.0000000000000000 -5.3470497838851872e-06 -1.1873585176772938e-05 0.54220213182764754 1.8573692822409720e-07 -3.2844168172503139e-09 0.36458333333333331 0.010416666666666666 0.36457798628354943 0.010404793081489894 
0.37500000000000000 0.0000000000000000 0.0000000000000000 -5.6966187347425432e-06 -1.2228912583545697e-05 0.51900662763631200 1.8410849923865953e-07 0.0000000000000000 0.37500000000000000 0.0000000000000000 0.37499430338126527 -1.2228912583545697e-05 
0.37500000000000000 0.010416666666666666 0.0000000000000000 -5.4247157513387115e-06 -1.2152669602576553e-05 0.52301195577899950 1.8277919630910844e-07 -4.1701603053461081e-09 0.37500000000000000 0.010416666666666666 0.37499457528424868 0.010404513997064090 
0.38541666666666669 0.0000000000000000 0.0000000000000000 -5.7714299079051730e-06 -1.2505077705916949e-05 0.50012281479952747 1.8134267247010438e-07 0.0000000000000000 0.38541666666666669 0.0000000000000000 0.38541089523675875 -1.2505077705916949e-05 
0.38541666666666669 0.010416666666666666 0.0000000000000000 -5.4995847364355743e-06 -1.2431614601964047e-05 0.50412642602677327 1.7987278062457344e-07 -5.1870669766691833e-09 0.38541666666666669 0.010416666666666666 0.38541116708193024 0.010404235052064703 
0.39583333333333331 0.0000000000000000 0.0000000000000000 -5.8434556075366907e-06 -1.2781115538484711e-05 0.48153230865822350 1.7859619901513547e-07 0.0000000000000000 0.39583333333333331 0.0000000000000000 0.39582748987772581 -1.2781115538484711e-05 
0.39583333333333331 0.010416666666666666 0.0000000000000000 -5.5716981324644984e-06 -1.2710391575918788e-05 0.48554100190109811 1.7700340857395123e-07 -6.3175752838769960e-09 0.39583333333333331 0.010416666666666666 0.39582776163520084 0.010403956275090748 
0.40625000000000000 0.0000000000000000 0.0000000000000000 -5.9127341742327094e-06 -1.3056994063855821e-05 0.46323303540987043 1.7585869220607426e-07 0.0000000000000000 0.40625000000000000 0.0000000000000000 0.40624408726582578 -1.3056994063855821e-05 
0.40625000000000000 0.010416666666666666 0.0000000000000000 -5.6410971353626821e-06 -1.2988968555915324e-05 0.46725251261042738 1.7415885635114375e-07 -7.5459551337831307e-09 0.40625000000000000 0.010416666666666666 0.40624435890286464 0.010403677698110752 
0.41666666666666669 0.0000000000000000 0.0000000000000000 -5.9793042992286838e-06 -1.3332678491695709e-05 0.44522397537294173 1.7312125333613994e-07 0.0000000000000000 0.41666666666666669 0.0000000000000000 0.41666068736236744 -1.3332678491695709e-05 
0.41666666666666669 0.010416666666666666 0.0000000000000000 -5.7078228893999810e-06 -1.3267310672828941e-05 0.44925896206103494 1.7132863188387446e-07 -8.8580660660546221e-09 0.41666666666666669 0.010416666666666666 0.41666095884377724 0.010403399355993838 
0.42708333333333331 0.0000000000000000 0.0000000000000000 -6.0432051088167044e-06 -1.3608131659161510e-05 0.42750501419048154 1.7037624386822891e-07 0.0000000000000000 0.42708333333333331 0.0000000000000000 0.42707729012822448 -1.3608131659161510e-05 
0.42708333333333331 0.010416666666666666 0.0000000000000000 -5.7719166120044989e-06 -1.3545380575645887e-05 0.43155936361762781 1.6850371027081215e-07 -1.0241151065426134e-08 0.42708333333333331 0.010416666666666666 0.42707756141672132 0.010403121286091020 
0.43750000000000000 0.0000000000000000 0.0000000000000000 -6.1044762363487823e-06 -1.3883314390665822e-05 0.41007681665732182 1.6761709366586449e-07 0.0000000000000000 0.43750000000000000 0.0000000000000000 0.43749389552376367 -1.3883314390665822e-05 
0.43750000000000000 0.010416666666666666 0.0000000000000000 -5.8334197009058617e-06 -1.3823138806717518e-05 0.41415359992455447 1.6567631184679863e-07 -1.1683659766065603e-08 0.43750000000000000 0.010416666666666666 0.43749416658029910 0.010402843527859947 
0.44791666666666669 0.0000000000000000 0.0000000000000000 -6.1631578837584074e-06 -1.4158185822275299e-05 0.39294071962106331 1.6483813874346626e-07 0.0000000000000000 0.44791666666666669 0.0000000000000000 0.44791050350878292 -1.4158185822275299e-05 
0.44791666666666669 0.010416666666666666 0.0000000000000000 -5.8923738262795406e-06 -1.4100544139287233e-05 0.39704230380907551 1.6283971510751023e-07 -1.3175095998169823e-08 0.44791666666666669 0.010416666666666666 0.44791077429284037 0.010402566122527379 
0.45833333333333331 0.0000000000000000 0.0000000000000000 -6.2192908742576289e-06 -1.4432703695292399e-05 0.37609864103843432 1.6203448337879378e-07 0.0000000000000000 0.45833333333333331 0.0000000000000000 0.45832711404245902 -1.4432703695292399e-05 
0.45833333333333331 0.010416666666666666 0.0000000000000000 -5.9488210101702311e-06 -1.4377553882189086e-05 0.38022675700177028 1.5998809831854331e-07 -1.4705885526237050e-08 0.45833333333333331 0.010416666666666666 0.45832738451232308 0.010402289112784477 
0.46875000000000000 0.0000000000000000 0.0000000000000000 -6.2729166976379789e-06 -1.4706824622944328e-05 0.35955300277256746 1.5920188241328963e-07 0.0000000000000000 0.46875000000000000 0.0000000000000000 0.46874372708330236 -1.4706824622944328e-05 
0.46875000000000000 0.010416666666666666 0.0000000000000000 -6.0028036951367466e-06 -1.4654124155933280e-05 0.36370880397815997 1.5711640487038662e-07 -1.6267260604857509e-08 0.46875000000000000 0.010416666666666666 0.46874399719630494 0.010402012542510733 
0.47916666666666669 0.0000000000000000 0.0000000000000000 -6.3240775494114004e-06 -1.4980504333587625e-05 0.34330666511985036 1.5633664047191940e-07 0.0000000000000000 0.47916666666666669 0.0000000000000000 0.47916034258911727 -1.4980504333587625e-05 
0.47916666666666669 0.010416666666666666 0.0000000000000000 -6.0543648037814653e-06 -1.4930210143830352e-05 0.34749077868056238 1.5422022843983400e-07 -1.7851158541017770e-08 0.47916666666666669 0.010416666666666666 0.47916061230186285 0.010401736456522835 
0.48958333333333331 0.0000000000000000 0.0000000000000000 -6.3728163648646985e-06 -1.5253697893409424e-05 0.32736287137888059 1.5343552538864701e-07 0.0000000000000000 0.48958333333333331 0.0000000000000000 0.48957696051696847 -1.5253697893409424e-05 
0.48958333333333331 0.010416666666666666 0.0000000000000000 -6.1035477905928291e-06 -1.5205766321340341e-05 0.33157544224425789 1.5129571478150780e-07 -1.9450131962963575e-08 0.48958333333333331 0.010416666666666666 0.48957722978554274 0.010401460900345326 
0.50000000000000000 0.0000000000000000 0.0000000000000000 -6.4191768489625168e-06 -1.5526359911251657e-05 0.31172520103569007 1.5049569371286197e-07 0.0000000000000000 0.50000000000000000 0.0000000000000000 0.49999358082315104 -1.5526359911251657e-05 
0.50000000000000000 0.010416666666666666 0.0000000000000000 -6.1503966873314575e-06 -1.5480746666447025e-05 0.31596593014691293 1.4833947757311461e-07 -2.1057268852149460e-08 0.50000000000000000 0.010416666666666666 0.49999384960331267 0.010401185920000220 
0.51041666666666663 0.0000000000000000 0.0000000000000000 -6.4632035029148011e-06 -1.5798444727889237e-05 0.29639753035020822 1.4751462652823865e-07 0.0000000000000000 0.51041666666666663 0.0000000000000000 0.51041020346316368 -1.5798444727889237e-05 
0.51041666666666663 0.010416666666666666 0.0000000000000000 -6.1949561430217889e-06 -1.5755104853537342e-05 0.30066570743776350 1.4534852626502919e-07 -2.2666120740112211e-08 0.51041666666666663 0.010416666666666666 0.51041047171052345 0.010400911561813130 
0.52083333333333337 0.0000000000000000 0.0000000000000000 -6.5049416481213193e-06 -1.6069906591849140e-05 0.28138399929965607 1.4449007419725248e-07 0.0000000000000000 0.52083333333333337 0.0000000000000000 0.52082682839168526 -1.6069906591849140e-05 
0.52083333333333337 0.010416666666666666 0.0000000000000000 -6.2372714594665715e-06 -1.6028794433001242e-05 0.28567853089549855 1.4232020424069891e-07 -2.4270637696430783e-08 0.52083333333333337 0.010416666666666666 0.52082709606187383 0.010400637872233665 
0.53125000000000000 0.0000000000000000 0.0000000000000000 -6.5444374481154996e-06 -1.6340699823653467e-05 0.26668898397211377 1.4142000887486228e-07 0.0000000000000000 0.53125000000000000 0.0000000000000000 0.53124345556255193 -1.6340699823653467e-05 
0.53125000000000000 0.010416666666666666 0.0000000000000000 -6.2773886230761103e-06 -1.6301768998547283e-05 0.27100841711917251 1.3925213594727442e-07 -2.5865108975400656e-08 0.53125000000000000 0.010416666666666666 0.53124372261137698 0.010400364897668117 
0.54166666666666663 0.0000000000000000 0.0000000000000000 -6.5817379290496267e-06 -1.6610778970202610e-05 0.25231707361428540 1.3830258389093735e-07 0.0000000000000000 0.54166666666666663 0.0000000000000000 0.54166008492873763 -1.6610778970202610e-05 
0.54166666666666663 0.010416666666666666 0.0000000000000000 -6.3153543336946322e-06 -1.6573982344048789e-05 0.25665961568145418 1.3614218191492316e-07 -2.7444108334028510e-08 0.54166666666666663 0.010416666666666666 0.54166035131233292 0.010400092684322617 
0.55208333333333337 0.0000000000000000 0.0000000000000000 -6.6168909991916456e-06 -1.6880098950876102e-05 0.23827305162595147 1.3513609926349301e-07 0.0000000000000000 0.55208333333333337 0.0000000000000000 0.55207671644233414 -1.6880098950876102e-05 
0.55208333333333337 0.010416666666666666 0.0000000000000000 -6.3512160310089316e-06 -1.6845388611586370e-05 0.24263658657386677 1.3298840078928668e-07 -2.9002443178041157e-08 0.55208333333333337 0.010416666666666666 0.55207698211730249 0.010399821278055081 
0.56250000000000000 0.0000000000000000 0.0000000000000000 -6.6499454678384257e-06 -1.7148615196817106e-05 0.22456187986218859 1.3191897280460108e-07 0.0000000000000000 0.56250000000000000 0.0000000000000000 0.56249335005453216 -1.7148615196817106e-05 
0.56250000000000000 0.010416666666666666 0.0000000000000000 -6.3850219190374434e-06 -1.7115942432232756e-05 0.22894398125272164 1.2978901771478567e-07 -3.0535106817596947e-08 0.56250000000000000 0.010416666666666666 0.56249361497808092 0.010399550724234432 
0.57291666666666663 0.0000000000000000 0.0000000000000000 -6.6809510639898775e-06 -1.7416283784776698e-05 0.21118868565788351 1.2864971635373084e-07 0.0000000000000000 0.57291666666666663 0.0000000000000000 0.57290998571560259 -1.7416283784776698e-05 
0.57291666666666663 0.010416666666666666 0.0000000000000000 -6.4168209891186006e-06 -1.7385599061029607e-05 0.21558662665521588 1.2654239855155009e-07 -3.2037233201339846e-08 0.57291666666666663 0.010416666666666666 0.57291024984567762 0.010399281067605638 
0.58333333333333337 0.0000000000000000 0.0000000000000000 -6.7099584550714454e-06 -1.7683061566822688e-05 0.19815875102745781 1.2532691687827330e-07 0.0000000000000000 0.58333333333333337 0.0000000000000000 0.58332662337487828 -1.7683061566822688e-05 
0.58333333333333337 0.010416666666666666 0.0000000000000000 -6.4466630417438115e-06 -1.7654314507530209e-05 0.20256951160109141 1.2324702954953527e-07 -3.3504053555412759e-08 0.58333333333333337 0.010416666666666666 0.58332688667029153 0.010399012352159136 
0.59375000000000000 0.0000000000000000 0.0000000000000000 -6.7370192659378958e-06 -1.7948906297165843e-05 0.18547750351765305 1.2194922222755743e-07 0.0000000000000000 0.59375000000000000 0.0000000000000000 0.59374326298073410 -1.7948906297165843e-05 
0.59375000000000000 0.010416666666666666 0.0000000000000000 -6.4745987075111618e-06 -1.7922045663226806e-05 0.18989777502616845 1.1990150225108924e-07 -3.4930854455385165e-08 0.59375000000000000 0.010416666666666666 0.59374352540129249 0.010398744621003439 
0.60416666666666663 0.0000000000000000 0.0000000000000000 -6.7621860983376066e-06 -1.8213776757317589e-05 0.17315050820512645 1.1851533146721985e-07 0.0000000000000000 0.60416666666666663 0.0000000000000000 0.60415990448056833 -1.8213776757317589e-05 