# For a description of the Tecplot format see the Tecplot User's guide.
#
Variables=x,y,z,s_u,s_v,s_p,x,y,ref_u,ref_v,u,v
Zone f=fepoint, n=1089, e=2048, et=quadrilateral, c=black
0.00000 0.00000 0.00000 0.0000000000000000 0.0000000000000000 2.7495840827783153 0.0000000000000000 0.0000000000000000 0.0000000000000000 0.0000000000000000 0.0000000000000000 0.0000000000000000 
0.031250000000000000 0.0000000000000000 0.0000000000000000 -1.0543364343573442e-06 -2.2776912779823869e-06 2.2223133499471714 3.6671664493600724e-06 0.0000000000000000 0.031250000000000000 0.0000000000000000 0.031248945663565644 -2.2776912779823869e-06 
0.031250000000000000 0.031250000000000000 0.0000000000000000 -2.6095795724988719e-07 -1.4429701247445869e-06 2.3265759839599762 2.2734215984114864e-06 7.0298454072456555e-07 0.031250000000000000 0.031250000000000000 0.031249739042042753 0.031248557029875255 
0.0000000000000000 0.031250000000000000 0.0000000000000000 0.0000000000000000 0.0000000000000000 2.4800039662159805 0.0000000000000000 2.4235740511285664e-06 0.0000000000000000 0.031250000000000000 0.0000000000000000 0.031250000000000000 
0.062500000000000000 0.0000000000000000 0.0000000000000000 -1.7640226043963322e-06 -3.5272483500376173e-06 1.6606787812366168 1.2648386599837302e-06 0.0000000000000000 0.062500000000000000 0.0000000000000000 0.062498235977395601 -3.5272483500376173e-06 
0.062500000000000000 0.031250000000000000 0.0000000000000000 -9.3490011277157165e-07 -2.8558961042389572e-06 1.8001413640251025 1.2196324548968761e-06 -6.4213602918652576e-07 0.062500000000000000 0.031250000000000000 0.062499065099887230 0.031247144103895761 
0.093750000000000000 0.0000000000000000 0.0000000000000000 -2.3491670871507829e-06 -4.5392797788670043e-06 1.3470950633543828 7.4186800977112687e-07 0.0000000000000000 0.093750000000000000 0.0000000000000000 0.093747650832912852 -4.5392797788670043e-06 
0.093750000000000000 0.031250000000000000 0.0000000000000000 -1.5304004601093778e-06 -3.9706173211089108e-06 1.4373209761975343 8.8905363752378743e-07 -2.8377152397799983e-07 0.093750000000000000 0.031250000000000000 0.093748469599539877 0.031246029382678894 
0.12500000000000000 0.0000000000000000 0.0000000000000000 -2.8631504841431345e-06 -5.4574609629789307e-06 1.1570093574599172 4.8502012536432588e-07 0.0000000000000000 0.12500000000000000 0.0000000000000000 0.12499713684951586 -5.4574609629789307e-06 
0.12500000000000000 0.031250000000000000 0.0000000000000000 -2.0593255408344336e-06 -4.9570808305212036e-06 1.2134876563651364 5.5426579197128583e-07 -1.8818167342961859e-07 0.12500000000000000 0.031250000000000000 0.12499794067445917 0.031245042919169474 
0.15625000000000000 0.0000000000000000 0.0000000000000000 -3.3266970687903980e-06 -6.3297767980653383e-06 1.0248428464764539 3.5729508671009532e-07 0.0000000000000000 0.15625000000000000 0.0000000000000000 0.15624667330293121 -6.3297767980653383e-06 
0.15625000000000000 0.031250000000000000 0.0000000000000000 -2.5343867843924648e-06 -5.8803854447566009e-06 1.0623430897581880 4.0609294003050682e-07 -1.0591385218912780e-07 0.15625000000000000 0.031250000000000000 0.15624746561321559 0.031244119614555244 
0.18750000000000000 0.0000000000000000 0.0000000000000000 -3.7495464375803451e-06 -7.1780787531502520e-06 0.92234067589443214 2.9217967399125152e-07 0.0000000000000000 0.18750000000000000 0.0000000000000000 0.18749625045356241 -7.1780787531502520e-06 
0.18750000000000000 0.031250000000000000 0.0000000000000000 -2.9643471130504216e-06 -6.7702879990408604e-06 0.94914465174182228 3.2269176980947614e-07 -6.2102351090017949e-08 0.18750000000000000 0.031250000000000000 0.18749703565288692 0.031243229712000959 
0.21875000000000000 0.0000000000000000 0.0000000000000000 -4.1369180213550205e-06 -8.0137511248154568e-06 0.83632917446268173 2.5474871926373757e-07 0.0000000000000000 0.21875000000000000 0.0000000000000000 0.21874586308197866 -8.0137511248154568e-06 
0.21875000000000000 0.031250000000000000 0.0000000000000000 -3.3552559130895118e-06 -7.6420361268780384e-06 0.85693226791448385 2.7305753520930993e-07 -3.6215523453647654e-08 0.21875000000000000 0.031250000000000000 0.21874664474408692 0.031242357963873122 
0.25000000000000000 0.0000000000000000 0.0000000000000000 -4.4919229550762191e-06 -8.8430939981664230e-06 0.76035621975960055 2.3118331353917314e-07 0.0000000000000000 0.25000000000000000 0.0000000000000000 0.24999550807704493 -8.8430939981664230e-06 
0.25000000000000000 0.031250000000000000 0.0000000000000000 -3.7113480196049244e-06 -8.5039290690790971e-06 0.77732347133540702 2.4133301546625578e-07 -2.1800725498397104e-08 0.25000000000000000 0.031250000000000000 0.24999628865198040 0.031241496070930918 
0.28125000000000000 0.0000000000000000 0.0000000000000000 -4.8166171957195236e-06 -9.6695722123787611e-06 0.69107837492502855 2.1484905413955715e-07 0.0000000000000000 0.28125000000000000 0.0000000000000000 0.28124518338280430 -9.6695722123787611e-06 
0.28125000000000000 0.031250000000000000 0.0000000000000000 -4.0356830482010523e-06 -9.3605153273663170e-06 0.70595049898928330 2.1936064696757930e-07 -1.4628276766452980e-08 0.28125000000000000 0.031250000000000000 0.28124596431695181 0.031240639484672632 
0.31250000000000000 0.0000000000000000 0.0000000000000000 -5.1125133289440070e-06 -1.0494935017685170e-05 0.62667696397013883 2.0240368953152993e-07 0.0000000000000000 0.31250000000000000 0.0000000000000000 0.31249488748667104 -1.0494935017685170e-05 
0.31250000000000000 0.031250000000000000 0.0000000000000000 -4.3305680096715633e-06 -1.0214150590220963e-05 0.64041997281328800 2.0299596653570957e-07 -1.2237691950772751e-08 0.31250000000000000 0.031250000000000000 0.31249566943199031 0.031239785849409781 
0.34375000000000000 0.0000000000000000 0.0000000000000000 -5.3808463902500739e-06 -1.1319839247610200e-05 0.56613228755762879 1.9207359944585258e-07 0.0000000000000000 0.34375000000000000 0.0000000000000000 0.34374461915360977 -1.1319839247610200e-05 
0.34375000000000000 0.031250000000000000 0.0000000000000000 -4.5978336446140310e-06 -1.1065834492931838e-05 0.57936728357287659 1.8993615614067827e-07 -1.3073090358431615e-08 0.34375000000000000 0.031250000000000000 0.34374540216635546 0.031238934165507073 
0.37500000000000000 0.0000000000000000 0.0000000000000000 -5.6227192086657643e-06 -1.2144226074044856e-05 0.50886901107281546 1.8285983094214636e-07 0.0000000000000000 0.37500000000000000 0.0000000000000000 0.37499437728079132 -1.2144226074044856e-05 
0.37500000000000000 0.031250000000000000 0.0000000000000000 -4.8390149161848438e-06 -1.1915698394515298e-05 0.52199699946147082 1.7883638547385423e-07 -1.6088273241041187e-08 0.37500000000000000 0.031250000000000000 0.37499516098508384 0.031238084301605486 
0.40625000000000000 0.0000000000000000 0.0000000000000000 -5.8391848906933345e-06 -1.2967562686345122e-05 0.45457191568710176 1.7417453668340465e-07 0.0000000000000000 0.40625000000000000 0.0000000000000000 0.40624416081510933 -1.2967562686345122e-05 
0.40625000000000000 0.031250000000000000 0.0000000000000000 -5.0554690361945127e-06 -1.2763307957657245e-05 0.46784619218187284 1.6887726917904967e-07 -2.0548952885434545e-08 0.40625000000000000 0.031250000000000000 0.40624494453096377 0.031237236692042342 
0.43750000000000000 0.0000000000000000 0.0000000000000000 -6.0312949732291203e-06 -1.3789004544525880e-05 0.40308441217739616 1.6565909513022119e-07 0.0000000000000000 0.43750000000000000 0.0000000000000000 0.43749396870502677 -1.3789004544525880e-05 
0.43750000000000000 0.031250000000000000 0.0000000000000000 -5.2484529867859146e-06 -1.3607860389497667e-05 0.41665490500979119 1.5954204116083158e-07 -2.5920087880472893e-08 0.43750000000000000 0.031250000000000000 0.43749475154701317 0.031236392139610502 
0.46875000000000000 0.0000000000000000 0.0000000000000000 -6.2001282032690228e-06 -1.4607508425567644e-05 0.35434982651107205 1.5708787943768063e-07 0.0000000000000000 0.46875000000000000 0.0000000000000000 0.46874379987179671 -1.4607508425567644e-05 
0.46875000000000000 0.031250000000000000 0.0000000000000000 -5.4191747297453321e-06 -1.4448318309341052e-05 0.36829135897509097 1.5049632909346239e-07 -3.1798813565696667e-08 0.46875000000000000 0.031250000000000000 0.46874458082527021 0.031235551681690659 
0.50000000000000000 0.0000000000000000 0.0000000000000000 -6.3468081958910661e-06 -1.5421913848775102e-05 0.30837612574240619 1.4831454916651449e-07 0.0000000000000000 0.50000000000000000 0.0000000000000000 0.49999365319180411 -1.5421913848775102e-05 
0.50000000000000000 0.031250000000000000 0.0000000000000000 -5.5688272855331527e-06 -1.5283503859534803e-05 0.32270681933384437 1.4151939063626804e-07 -3.7871290702651081e-08 0.50000000000000000 0.031250000000000000 0.49999443117271447 0.031234716496140461 
0.53125000000000000 0.0000000000000000 0.0000000000000000 -6.4725147409668686e-06 -1.6231003739059017e-05 0.26521412501890751 1.3924067880247027e-07 0.0000000000000000 0.53125000000000000 0.0000000000000000 0.53124352748525905 -1.6231003739059017e-05 
0.53125000000000000 0.031250000000000000 0.0000000000000000 -5.6986116495605132e-06 -1.6112167188574587e-05 0.27990737799578608 1.3246327031649901e-07 -4.3883117514643578e-08 0.53125000000000000 0.031250000000000000 0.53124430138835044 0.031233887832811422 
0.56250000000000000 0.0000000000000000 0.0000000000000000 -6.5784916283369797e-06 -1.7033551432852513e-05 0.22494368287995237 1.2979700533327798e-07 0.0000000000000000 0.56250000000000000 0.0000000000000000 0.56249342150837167 -1.7033551432852513e-05 
0.56250000000000000 0.031250000000000000 0.0000000000000000 -5.8097524395138786e-06 -1.6933038287858464e-05 0.23993572914210118 1.2322812333512178e-07 -4.9617778159042873e-08 0.56250000000000000 0.031250000000000000 0.56249419024756053 0.031233066961712141 
0.59375000000000000 0.0000000000000000 0.0000000000000000 -6.6660527596815835e-06 -1.7828358975760026e-05 0.18766460529948650 1.1993245349615976e-07 0.0000000000000000 0.59375000000000000 0.0000000000000000 0.59374333394724033 -1.7828358975760026e-05 
0.59375000000000000 0.031250000000000000 0.0000000000000000 -5.9035088060421918e-06 -1.7744868278888823e-05 0.20285888774293781 1.1374763259597558e-07 -5.4879990035168182e-08 0.59375000000000000 0.031250000000000000 0.59374409649119386 0.031232255131721110 
0.62500000000000000 0.0000000000000000 0.0000000000000000 -6.7365876220479923e-06 -1.8614290419406346e-05 0.15349008891155697 1.0960857899962445e-07 0.0000000000000000 0.62500000000000000 0.0000000000000000 0.62499326341237793 -1.8614290419406346e-05 
0.62500000000000000 0.031250000000000000 0.0000000000000000 -5.9811822159542834e-06 -1.8546464618554213e-05 0.16875926045034750 1.0398137251095483e-07 -5.9482120753665850e-08 0.62500000000000000 0.031250000000000000 0.62499401881778394 0.031231453535381450 
0.65625000000000000 0.0000000000000000 0.0000000000000000 -6.7915667032955750e-06 -1.9390303140927486e-05 0.12254105560133710 9.8798516537126132e-08 0.0000000000000000 0.65625000000000000 0.0000000000000000 0.65624320843329675 -1.9390303140927486e-05 
0.65625000000000000 0.031250000000000000 0.0000000000000000 -6.0441220588245218e-06 -1.9336723806098054e-05 0.13772721098335364 9.3912612132160788e-08 -6.3232651654074831e-08 0.65625000000000000 0.031250000000000000 0.65624395587794115 0.031230663276193903 
0.68750000000000000 0.0000000000000000 0.0000000000000000 -6.8325470049710141e-06 -2.0155479892632664e-05 0.094939895189138659 8.7490346751541665e-08 0.0000000000000000 0.68750000000000000 0.0000000000000000 0.68749316745299505 -2.0155479892632664e-05 
0.68750000000000000 0.031250000000000000 0.0000000000000000 -6.0937295237428930e-06 -2.0114664772286359e-05 0.10985358553857925 8.3550996751760366e-08 -6.5926296903782864e-08 0.68750000000000000 0.031250000000000000 0.68749390627047624 0.031229885335227716 
0.71875000000000000 0.0000000000000000 0.0000000000000000 -6.8611773543234525e-06 -2.0909064242664857e-05 0.070802072992684165 7.5696267138458157e-08 0.0000000000000000 0.71875000000000000 0.0000000000000000 0.71874313882264562 -2.0909064242664857e-05 
0.71875000000000000 0.031250000000000000 0.0000000000000000 -6.1314597719855545e-06 -2.0879466073139407e-05 0.085220750440015647 7.2940433440846012e-08 -6.7336076268504269e-08 0.71875000000000000 0.031250000000000000 0.71874386854022798 0.031229120533926857 
0.75000000000000000 0.0000000000000000 0.0000000000000000 -6.8792026202996344e-06 -2.1650502229025560e-05 0.050223797692838364 6.3466741753002425e-08 0.0000000000000000 0.75000000000000000 0.0000000000000000 0.74999312079737968 -2.1650502229025560e-05 
0.75000000000000000 0.031250000000000000 0.0000000000000000 -6.1588220450667628e-06 -2.1630510222333314e-05 0.063890637420347771 6.2171569889188712e-08 -6.7208401676879342e-08 0.75000000000000000 0.031250000000000000 0.74999384117795487 0.031228369489777665 
0.78125000000000000 0.0000000000000000 0.0000000000000000 -6.8884650574182157e-06 -2.2379493385406580e-05 0.033263855873694480 5.0921652097270848e-08 0.0000000000000000 0.78125000000000000 0.0000000000000000 0.78124311153494264 -2.2379493385406580e-05 
0.78125000000000000 0.031250000000000000 0.0000000000000000 -6.1773769713260144e-06 -2.2367438931061949e-05 0.045888381005889295 5.1403049327968073e-08 -6.5264583746027423e-08 0.78125000000000000 0.031250000000000000 0.78124382262302872 0.031227632561068943 
0.81250000000000000 0.0000000000000000 0.0000000000000000 -6.8908995080726490e-06 -2.3096054619052384e-05 0.019917309218217692 3.8260956320251564e-08 0.0000000000000000 0.81250000000000000 0.0000000000000000 0.81249310910049177 -2.3096054619052384e-05 
0.81250000000000000 0.031250000000000000 0.0000000000000000 -6.1887299010405819e-06 -2.3090223543034094e-05 0.031180317097295279 4.0871492312581879e-08 -6.1210323289932069e-08 0.81250000000000000 0.031250000000000000 0.81249381127009901 0.031226909776456969 
0.84375000000000000 0.0000000000000000 0.0000000000000000 -6.8885167929733189e-06 -2.3800600600250353e-05 0.010081502691756164 2.5904107537636057e-08 0.0000000000000000 0.84375000000000000 0.0000000000000000 0.84374311148320702 -2.3800600600250353e-05 
0.84375000000000000 0.031250000000000000 0.0000000000000000 -6.1945186228329804e-06 -2.3799255401128567e-05 0.019647738340254323 3.0955318598473667e-08 -5.4778813841129426e-08 0.84375000000000000 0.031250000000000000 0.84374380548137717 0.031226200744598868 
0.87500000000000000 0.0000000000000000 0.0000000000000000 -6.8833646679773353e-06 -2.4494042311981558e-05 0.0035121706188388814 1.4215549624425540e-08 0.0000000000000000 0.87500000000000000 0.0000000000000000 0.87499311663533197 -2.4494042311981558e-05 
0.87500000000000000 0.031250000000000000 0.0000000000000000 -6.1963925837129311e-06 -2.4495459975965627e-05 0.011058474905604484 2.1991400960070361e-08 -4.5758221913666057e-08 0.87500000000000000 0.031250000000000000 0.87499380360741619 0.031225504540024037 
0.90625000000000000 0.0000000000000000 0.0000000000000000 -6.8774481723260190e-06 -2.5177900551618008e-05 -0.00021093414604174128 4.6443375080327701e-09 0.0000000000000000 0.90625000000000000 0.0000000000000000 0.90624312255182771 -2.5177900551618008e-05 
0.90625000000000000 0.031250000000000000 0.0000000000000000 -6.1959790762608662e-06 -2.5180435953256106e-05 0.0050586279463727731 1.4875501915052084e-08 -3.4317537008103099e-08 0.90625000000000000 0.031250000000000000 0.90624380402092364 0.031224819564046744 
0.93750000000000000 0.0000000000000000 0.0000000000000000 -6.8725699471355977e-06 -2.5854401323479220e-05 -0.0017398946730457002 -3.4841365559636877e-09 0.0000000000000000 0.93750000000000000 0.0000000000000000 0.93749312743005275 -2.5854401323479220e-05 
0.93750000000000000 0.031250000000000000 0.0000000000000000 -6.1948218855498413e-06 -2.5856603930989441e-05 0.0011717033171011004 8.5778879113380883e-09 -2.0630993450993282e-08 0.93750000000000000 0.031250000000000000 0.93749380517811443 0.031224143396069010 
0.96875000000000000 0.0000000000000000 0.0000000000000000 -6.8700093412178935e-06 -2.6526449883418872e-05 -0.0019825738969300967 -4.7467725962559933e-09 0.0000000000000000 0.96875000000000000 0.0000000000000000 0.96874312999065870 -2.6526449883418872e-05 
0.96875000000000000 0.031250000000000000 0.0000000000000000 -6.1942627782340593e-06 -2.6527323454436875e-05 -0.0011002886747256101 7.9787380243462373e-09 -8.0323607364891516e-09 0.96875000000000000 0.031250000000000000 0.96874380573722174 0.031223472676545568 
1.0000000000000000 0.0000000000000000 0.0000000000000000 -6.8697828516217997e-06 -2.7196968920173934e-05 -0.0022528325362165132 0.0000000000000000 0.0000000000000000 1.0000000000000000 0.0000000000000000 0.99999313021714842 -2.7196968920173934e-05 
1.0000000000000000 0.031250000000000000 0.0000000000000000 -6.1951219036261112e-06 -2.7196761262834005e-05 -0.0019736638406255883 0.0000000000000000 4.6355740168843006e-09 1.0000000000000000 0.031250000000000000 0.99999380487809642 0.031222803238737166 
0.031250000000000000 0.062500000000000000 0.0000000000000000 -1.2977303898036614e-07 -1.1064361967161692e-06 2.0477585807668865 5.4889481688740051e-07 8.8004362381307846e-07 0.031250000000000000 0.062500000000000000 0.031249870226961018 0.062498893563803282 
0.0000000000000000 0.062500000000000000 0.0000000000000000 0.0000000000000000 0.0000000000000000 2.0645831107869532 0.0000000000000000 1.3565874826376055e-06 0.0000000000000000 0.062500000000000000 0.0000000000000000 0.062500000000000000 
0.062500000000000000 0.062500000000000000 0.0000000000000000 -4.8025674047117284e-07 -2.2818002648872577e-06 1.7832654410179491 1.0858038591974266e-06 4.4952478851771286e-07 0.062500000000000000 0.062500000000000000 0.062499519743259520 0.062497718199735104 
0.093750000000000000 0.062500000000000000 0.0000000000000000 -9.7056333307445859e-07 -3.4302893439793992e-06 1.4684101831398413 9.1043965276433124e-07 4.3016944431130085e-08 0.093750000000000000 0.062500000000000000 0.093749029436666922 0.062496569710656029 
0.12500000000000000 0.062500000000000000 0.0000000000000000 -1.4496791619413253e-06 -4.4669812230588865e-06 1.2366723091576362 5.8526369905598926e-07 -6.6006641026908900e-09 0.12500000000000000 0.062500000000000000 0.12499855032083806 0.062495533018776951 
0.15625000000000000 0.062500000000000000 0.0000000000000000 -1.8965817372158305e-06 -5.4361785300120910e-06 1.0742133069812339 4.3245699232999958e-07 1.0454952215539071e-08 0.15625000000000000 0.062500000000000000 0.15624810341826278 0.062494563821469985 
0.18750000000000000 0.062500000000000000 0.0000000000000000 -2.3081468584208398e-06 -6.3664113310378127e-06 0.95351714122838083 3.3570623172434903e-07 1.9646520796565331e-08 0.18750000000000000 0.062500000000000000 0.18749769185314158 0.062493633588668961 
0.21875000000000000 0.062500000000000000 0.0000000000000000 -2.6855407825744881e-06 -7.2740455008598609e-06 0.85702509139931904 2.7941089138316985e-07 2.6393206466714809e-08 0.21875000000000000 0.062500000000000000 0.21874731445921738 0.062492725954499138 
0.25000000000000000 0.062500000000000000 0.0000000000000000 -3.0308517124878616e-06 -8.1684656340961800e-06 0.77532241079853959 2.4324914184633358e-07 2.8208013704062502e-08 0.25000000000000000 0.062500000000000000 0.24999696914828751 0.062491831534365903 
0.28125000000000000 0.062500000000000000 0.0000000000000000 -3.3461851529652510e-06 -9.0550090016104385e-06 0.70329922934650746 2.1834670001473749e-07 2.6882405004325770e-08 0.28125000000000000 0.062500000000000000 0.28124665381484704 0.062490944990998387 
0.31250000000000000 0.062500000000000000 0.0000000000000000 -3.6334350729800328e-06 -9.9365656436912380e-06 0.63809148649669101 1.9998281862285631e-07 2.3249029011613743e-08 0.31250000000000000 0.062500000000000000 0.31249636656492702 0.062490063434356306 
0.34375000000000000 0.062500000000000000 0.0000000000000000 -3.8942677926624223e-06 -1.0814486779433367e-05 0.57802642523921899 1.8554263384074153e-07 1.7989537147102183e-08 0.34375000000000000 0.062500000000000000 0.34374610573220732 0.062489185513220573 
0.37500000000000000 0.062500000000000000 0.0000000000000000 -4.1301641762487443e-06 -1.1689129641353929e-05 0.52209609505199539 1.7351313329624944e-07 1.1601218335903565e-08 0.37500000000000000 0.062500000000000000 0.37499586983582373 0.062488310870358645 
0.40625000000000000 0.062500000000000000 0.0000000000000000 -4.3424703454679677e-06 -1.2560200131993297e-05 0.46968335558934199 1.6297066726966897e-07 4.4681197338221356e-09 0.40625000000000000 0.062500000000000000 0.40624565752965452 0.062487439799868004 
0.43750000000000000 0.062500000000000000 0.0000000000000000 -4.5324419598895390e-06 -1.3426977440475802e-05 0.42041151549135897 1.5332925859048056e-07 -3.1016586322300745e-09 0.43750000000000000 0.062500000000000000 0.43749546755804009 0.062486573022559534 
0.46875000000000000 0.062500000000000000 0.0000000000000000 -4.7012789592035901e-06 -1.4288466472214677e-05 0.37405717400759358 1.4420662642152103e-07 -1.0853561932347469e-08 0.46875000000000000 0.062500000000000000 0.46874529872104082 0.062485711533527784 
0.50000000000000000 0.062500000000000000 0.0000000000000000 -4.8501515254681390e-06 -1.5143504535397536e-05 0.33049709350635442 1.3534892194566039e-07 -1.8570891406280908e-08 0.50000000000000000 0.062500000000000000 0.49999514984847454 0.062484856495464598 
0.53125000000000000 0.062500000000000000 0.0000000000000000 -4.9802189949873120e-06 -1.5990838345742356e-05 0.28967435741203357 1.2658663562029503e-07 -2.6062956717047307e-08 0.53125000000000000 0.062500000000000000 0.53124501978100502 0.062484009161654260 
0.56250000000000000 0.062500000000000000 0.0000000000000000 -5.0926434408332197e-06 -1.6829181647084880e-05 0.25157587743372578 1.1780810361174785e-07 -3.3155272128678078e-08 0.56250000000000000 0.062500000000000000 0.56249490735655916 0.062483170818352918 
0.59375000000000000 0.062500000000000000 0.0000000000000000 -5.1885993475871709e-06 -1.7657260452334390e-05 0.21621666499448722 1.0894377790196965e-07 -3.9680998015413871e-08 0.59375000000000000 0.062500000000000000 0.59374481140065238 0.062482342739547662 
0.62500000000000000 0.062500000000000000 0.0000000000000000 -5.2692804595306933e-06 -1.8473851011706309e-05 0.18362799192749077 9.9957696459196304e-08 -4.5473275705800855e-08 0.62500000000000000 0.062500000000000000 0.62499473071954048 0.062481526148988296 
0.65625000000000000 0.062500000000000000 0.0000000000000000 -5.3359045889315399e-06 -1.9277814551643965e-05 0.15384745513880629 9.0844313671638549e-08 -5.0358397082669196e-08 0.65625000000000000 0.062500000000000000 0.65624466409541105 0.062480722185448360 
0.68750000000000000 0.062500000000000000 0.0000000000000000 -5.3897169532739688e-06 -2.0068132297223132e-05 0.12690941464354047 8.1629720706367946e-08 -5.4150071188547242e-08 0.68750000000000000 0.062500000000000000 0.68749461028304670 0.062479931867702780 
0.71875000000000000 0.062500000000000000 0.0000000000000000 -5.4319924890182349e-06 -2.0843944126785730e-05 0.10283451314985979 7.2377074975106847e-08 -5.6645338602632672e-08 0.71875000000000000 0.062500000000000000 0.71874456800751096 0.062479156055873224 
0.75000000000000000 0.062500000000000000 0.0000000000000000 -5.4640375869918971e-06 -2.1604594308866227e-05 0.081617132130048051 6.3194380444169405e-08 -5.7623485472754226e-08 0.75000000000000000 0.062500000000000000 0.74999453596241306 0.062478395405691133 
0.78125000000000000 0.062500000000000000 0.0000000000000000 -5.4871918515903709e-06 -2.2349688060282397e-05 0.063210080323683845 5.4249105547909544e-08 -5.6849351248104796e-08 0.78125000000000000 0.062500000000000000 0.78124451280814844 0.062477650311939727 
0.81250000000000000 0.062500000000000000 0.0000000000000000 -5.5028307854806067e-06 -2.3079163013084368e-05 0.047506441029290636 4.5759863017995328e-08 -5.4085719832863123e-08 0.81250000000000000 0.062500000000000000 0.81249449716921440 0.062476920836986916 
0.84375000000000000 0.062500000000000000 0.0000000000000000 -5.5123707939340260e-06 -2.3793379932555181e-05 0.034322528848936475 3.8058881178939305e-08 -4.9117325865548925e-08 0.84375000000000000 0.062500000000000000 0.84374448762920606 0.062476206620067455 
0.87500000000000000 0.062500000000000000 0.0000000000000000 -5.5172777210889618e-06 -2.4493236506129433e-05 0.023387315623403456 3.1280430226309711e-08 -4.1798637391617083e-08 0.87500000000000000 0.062500000000000000 0.87499448272227898 0.062475506763493872 
0.90625000000000000 0.062500000000000000 0.0000000000000000 -5.5190797363656764e-06 -2.5180306926953819e-05 0.014374712432959303 2.6240152978433804e-08 -3.2175040117508710e-08 0.90625000000000000 0.062500000000000000 0.90624448092026366 0.062474819693073051 
0.93750000000000000 0.062500000000000000 0.0000000000000000 -5.5193754559432547e-06 -2.5857003431392049e-05 0.0069739479542929158 2.0425666739969289e-08 -2.0510477647306519e-08 0.93750000000000000 0.062500000000000000 0.93749448062454410 0.062474142996568609 
0.96875000000000000 0.062500000000000000 0.0000000000000000 -5.5198219823318281e-06 -2.6526760916684933e-05 0.0012079915571235299 2.0527194529372879e-08 -8.6727192346127879e-09 0.96875000000000000 0.062500000000000000 0.96874448017801751 0.062473473239083317 
1.0000000000000000 0.062500000000000000 0.0000000000000000 -5.5220043366597695e-06 -2.7194228262361711e-05 -0.0016945617120700286 0.0000000000000000 3.2321349702002824e-09 1.0000000000000000 0.062500000000000000 0.99999447799566321 0.062472805771737638 
0.031250000000000000 0.093750000000000000 0.0000000000000000 -7.9711940146004141e-08 -9.1356970966060570e-07 1.7576282894920725 3.1843919482716783e-07 8.2401155774903194e-07 0.031250000000000000 0.093750000000000000 0.031249920288059851 0.093749086430290340 
0.0000000000000000 0.093750000000000000 0.0000000000000000 0.0000000000000000 0.0000000000000000 1.7424091308362735 0.0000000000000000 1.0037776409948921e-06 0.0000000000000000 0.093750000000000000 0.0000000000000000 0.093750000000000000 
0.062500000000000000 0.093750000000000000 0.0000000000000000 -2.9519804990121565e-07 -1.9321776540431546e-06 1.6214972705375645 5.8481886535113383e-07 6.1393159179631007e-07 0.062500000000000000 0.093750000000000000 0.062499704801950100 0.093748067822345960 
0.093750000000000000 0.093750000000000000 0.0000000000000000 -6.2255432796672940e-07 -2.9908399922126714e-06 1.4219016587040016 6.7754142242335764e-07 2.6684253166384629e-07 0.093750000000000000 0.093750000000000000 0.093749377445672036 0.093747009160007791 
0.12500000000000000 0.093750000000000000 0.0000000000000000 -1.0108088182677022e-06 -4.0314349101991763e-06 1.2232941829030206 5.6289003983021788e-07 1.0446449519339680e-07 0.12500000000000000 0.093750000000000000 0.12499898919118173 0.093745968565089807 
0.15625000000000000 0.093750000000000000 0.0000000000000000 -1.4009644290028198e-06 -5.0258982477380339e-06 1.0653811498595511 4.3471458464341519e-07 6.5480010940190132e-08 0.15625000000000000 0.093750000000000000 0.15624859903557101 0.093744974101752268 
0.18750000000000000 0.093750000000000000 0.0000000000000000 -1.7739618556093113e-06 -5.9860306883407515e-06 0.94361817690652161 3.4000170638704432e-07 5.5380333467403614e-08 0.18750000000000000 0.093750000000000000 0.18749822603814439 0.093744013969311660 
0.21875000000000000 0.093750000000000000 0.0000000000000000 -2.1232648651583765e-06 -6.9236902412367126e-06 0.84609140036214237 2.8119605986546899e-07 5.2800060217729451e-08 0.21875000000000000 0.093750000000000000 0.21874787673513482 0.093743076309758769 
0.25000000000000000 0.093750000000000000 0.0000000000000000 -2.4469645727043594e-06 -7.8470010868049637e-06 0.76428608147714761 2.4179773891286991e-07 4.9211165669049037e-08 0.25000000000000000 0.093750000000000000 0.24999755303542728 0.093742152998913197 
0.28125000000000000 0.093750000000000000 0.0000000000000000 -2.7449847061798295e-06 -8.7610055833619652e-06 0.69301353797273724 2.1447793013702974e-07 4.4352334691099674e-08 0.28125000000000000 0.093750000000000000 0.28124725501529380 0.093741238994416651 
0.31250000000000000 0.093750000000000000 0.0000000000000000 -3.0179823143723974e-06 -9.6685918383188362e-06 0.62920265164329781 1.9433792666910362e-07 3.8082046178875986e-08 0.31250000000000000 0.093750000000000000 0.31249698201768566 0.093740331408161681 
0.34375000000000000 0.093750000000000000 0.0000000000000000 -3.2669005052179459e-06 -1.0571187205866171e-05 0.57099752056518516 1.7864373949518219e-07 3.0761984782561156e-08 0.34375000000000000 0.093750000000000000 0.34374673309949477 0.093739428812794137 
0.37500000000000000 0.093750000000000000 0.0000000000000000 -3.4927835202083089e-06 -1.1469231752118276e-05 0.51724665357661237 1.6576863945384914e-07 2.2695731637646284e-08 0.37500000000000000 0.093750000000000000 0.37499650721647981 0.093738530768247882 
0.40625000000000000 0.093750000000000000 0.0000000000000000 -3.6967026737507473e-06 -1.2362498991302748e-05 0.46721995052045556 1.5470713466195344e-07 1.4159032269710692e-08 0.40625000000000000 0.093750000000000000 0.40624630329732625 0.093737637501008705 
0.43750000000000000 0.093750000000000000 0.0000000000000000 -3.8797295161075946e-06 -1.3250316174183946e-05 0.42044949951310556 1.4481562578929863e-07 5.3891456797984077e-09 0.43750000000000000 0.093750000000000000 0.43749612027048385 0.093736749683825824 
0.46875000000000000 0.093750000000000000 0.0000000000000000 -4.0429288323163239e-06 -1.4131718408036550e-05 0.37663608440140955 1.3567069415373439e-07 -3.4071374113115368e-09 0.46875000000000000 0.093750000000000000 0.46874595707116767 0.093735868281591958 
0.50000000000000000 0.093750000000000000 0.0000000000000000 -4.1873594865131238e-06 -1.5005558688577072e-05 0.33559156807939156 1.2698957680824050e-07 -1.2046271098324917e-08 0.50000000000000000 0.093750000000000000 0.49999581264051346 0.093734994441311406 