# For a description of the Tecplot format see the Tecplot User's guide.
#
Variables=x,y,z,s_u,s_v,s_p,x,y,ref_u,ref_v,u,v
Zone f=fepoint, n=289, e=512, et=quadrilateral, c=black
0.00000 0.00000 0.00000 0.0000000000000000 0.0000000000000000 1.9642997885254934 0.0000000000000000 0.0000000000000000 0.0000000000000000 0.0000000000000000 0.0000000000000000 0.0000000000000000 
0.062500000000000000 0.0000000000000000 0.0000000000000000 -1.5455939877069093e-06 -3.2438736279880408e-06 1.5610566494615332 1.4590989773229469e-06 0.0000000000000000 0.062500000000000000 0.0000000000000000 0.062498454406012295 -3.2438736279880408e-06 
0.062500000000000000 0.062500000000000000 0.0000000000000000 -3.5640883907823352e-07 -2.0477159651393933e-06 1.6058967218865519 8.5739378240708767e-07 4.0455339635318764e-07 0.062500000000000000 0.062500000000000000 0.062499643591160912 0.062497952284034868 
0.0000000000000000 0.062500000000000000 0.0000000000000000 0.0000000000000000 0.0000000000000000 1.6904888386672210 0.0000000000000000 1.1595392701003002e-06 0.0000000000000000 0.062500000000000000 0.0000000000000000 0.062500000000000000 
0.12500000000000000 0.0000000000000000 0.0000000000000000 -2.5973234587275152e-06 -5.1406912716768809e-06 1.1202432745517257 4.7129438618616530e-07 0.0000000000000000 0.12500000000000000 0.0000000000000000 0.12499740267654129 -5.1406912716768809e-06 
0.12500000000000000 0.062500000000000000 0.0000000000000000 -1.2929646457252842e-06 -4.2016361175003171e-06 1.2017197937877857 4.7928126558151101e-07 -1.6664277530173756e-07 0.12500000000000000 0.062500000000000000 0.12499870703535428 0.062495798363882506 
0.18750000000000000 0.0000000000000000 0.0000000000000000 -3.4399276547783513e-06 -6.7970189376136168e-06 0.86813563214651757 3.2403137052014273e-07 0.0000000000000000 0.18750000000000000 0.0000000000000000 0.18749656007234519 -6.7970189376136168e-06 
0.18750000000000000 0.062500000000000000 0.0000000000000000 -2.0925773261585995e-06 -6.0347397863807694e-06 0.91678079165346993 3.6120219029875756e-07 -2.5602305690154562e-08 0.18750000000000000 0.062500000000000000 0.18749790742267383 0.062493965260213620 
0.25000000000000000 0.0000000000000000 0.0000000000000000 -4.1374681814592107e-06 -8.3897788075597012e-06 0.69954017988366735 2.3867063937818469e-07 0.0000000000000000 0.25000000000000000 0.0000000000000000 0.24999586253181852 -8.3897788075597012e-06 
0.25000000000000000 0.062500000000000000 0.0000000000000000 -2.7651947350742110e-06 -7.7610605545947221e-06 0.73084884952172280 2.4121059534256687e-07 -1.2803918970090045e-08 0.25000000000000000 0.062500000000000000 0.24999723480526495 0.062492238939445395 
0.31250000000000000 0.0000000000000000 0.0000000000000000 -4.7146576303392788e-06 -9.9641214648047685e-06 0.56923202322847877 1.9732273118142186e-07 0.0000000000000000 0.31250000000000000 0.0000000000000000 0.31249528534236964 -9.9641214648047685e-06 
0.31250000000000000 0.062500000000000000 0.0000000000000000 -3.3257923877737311e-06 -9.4467771015469154e-06 0.59413485229555763 1.9323679594922461e-07 -5.8815624900118401e-09 0.31250000000000000 0.062500000000000000 0.31249667420761224 0.062490553222898447 
0.37500000000000000 0.0000000000000000 0.0000000000000000 -5.1850958224156713e-06 -1.1530514693122337e-05 0.45986534835667942 1.7238401812318842e-07 0.0000000000000000 0.37500000000000000 0.0000000000000000 0.37499481490417758 -1.1530514693122337e-05 
0.37500000000000000 0.062500000000000000 0.0000000000000000 -3.7867007221116906e-06 -1.1110738206710789e-05 0.48338232100791773 1.6267464871670982e-07 -1.2000355122940510e-08 0.37500000000000000 0.062500000000000000 0.37499621329927790 0.062488889261793294 
0.43750000000000000 0.0000000000000000 0.0000000000000000 -5.5589625967355328e-06 -1.3087067364574971e-05 0.36476320951724261 1.5273188261266427e-07 0.0000000000000000 0.43750000000000000 0.0000000000000000 0.43749444103740326 -1.3087067364574971e-05 
0.43750000000000000 0.062500000000000000 0.0000000000000000 -4.1584453995470815e-06 -1.2754261268859915e-05 0.38887580470646971 1.4079288545083118e-07 -2.2179511666580029e-08 0.43750000000000000 0.062500000000000000 0.43749584155460047 0.062487245738731149 
0.50000000000000000 0.0000000000000000 0.0000000000000000 -5.8456337505708056e-06 -1.4627070131354074e-05 0.28148298616379047 1.3461957207689064e-07 0.0000000000000000 0.50000000000000000 0.0000000000000000 0.49999415436624944 -1.4627070131354074e-05 
0.50000000000000000 0.062500000000000000 0.0000000000000000 -4.4505802484530649e-06 -1.4371707825350880e-05 0.30670396356134572 1.2240100363143513e-07 -3.3379897684941747e-08 0.50000000000000000 0.062500000000000000 0.49999554941975161 0.062485628292174640 
0.56250000000000000 0.0000000000000000 0.0000000000000000 -6.0546940739047377e-06 -1.6142199355315397e-05 0.20928371697096906 1.1644231025339923e-07 0.0000000000000000 0.56250000000000000 0.0000000000000000 0.56249394530592611 -1.6142199355315397e-05 
0.56250000000000000 0.062500000000000000 0.0000000000000000 -4.6722594483860060e-06 -1.5954914133176565e-05 0.23535320422099390 1.0531616456529344e-07 -4.3656805295515885e-08 0.56250000000000000 0.062500000000000000 0.56249532774055166 0.062484045085866823 
0.62500000000000000 0.0000000000000000 0.0000000000000000 -6.1963743405635608e-06 -1.7624182916215665e-05 0.14809501545677847 9.7541385080278547e-08 0.0000000000000000 0.62500000000000000 0.0000000000000000 0.62499380362565948 -1.7624182916215665e-05 
0.62500000000000000 0.062500000000000000 0.0000000000000000 -4.8325876002693921e-06 -1.7495362556321060e-05 0.17428025865424043 8.8704277144048498e-08 -5.1696418543012225e-08 0.62500000000000000 0.062500000000000000 0.62499516741239969 0.062482504637443682 
0.68750000000000000 0.0000000000000000 0.0000000000000000 -6.2817793578986809e-06 -1.9065882132931654e-05 0.098048759632056226 7.7905837366350168e-08 0.0000000000000000 0.68750000000000000 0.0000000000000000 0.68749371822064209 -1.9065882132931654e-05 
0.68750000000000000 0.062500000000000000 0.0000000000000000 -4.9408375568194693e-06 -1.8985472581780009e-05 0.12327051823561942 7.2449157546024757e-08 -5.6388241015521372e-08 0.68750000000000000 0.062500000000000000 0.68749505916244313 0.062481014527418222 
0.75000000000000000 0.0000000000000000 0.0000000000000000 -6.3230361957638708e-06 -2.0462233725119782e-05 0.059201980407801037 5.7284288206410115e-08 0.0000000000000000 0.75000000000000000 0.0000000000000000 0.74999367696380437 -2.0462233725119782e-05 
0.75000000000000000 0.062500000000000000 0.0000000000000000 -5.0066048933130561e-06 -2.0419631767237234e-05 0.082099742164674583 5.6592931919855245e-08 -5.6699466104172400e-08 0.75000000000000000 0.062500000000000000 0.74999499339510667 0.062479580368232764 
0.81250000000000000 0.0000000000000000 0.0000000000000000 -6.3333643924125023e-06 -2.1811332781273050e-05 0.031328524875847703 3.7787950890603268e-08 0.0000000000000000 0.81250000000000000 0.0000000000000000 0.81249366663560763 -2.1811332781273050e-05 
0.81250000000000000 0.062500000000000000 0.0000000000000000 -5.0399467341056328e-06 -2.1795332276290528e-05 0.050336302309527799 4.2569706510869104e-08 -5.1545465770919905e-08 0.81250000000000000 0.062500000000000000 0.81249496005326594 0.062478204667723712 
0.87500000000000000 0.0000000000000000 0.0000000000000000 -6.3269099614117135e-06 -2.3115826829733513e-05 0.013682784605169232 1.6538044490433575e-08 0.0000000000000000 0.87500000000000000 0.0000000000000000 0.87499367309003862 -2.3115826829733513e-05 
0.87500000000000000 0.062500000000000000 0.0000000000000000 -5.0515161999825292e-06 -2.3114681085867479e-05 0.027245980952887900 2.8026184915365581e-08 -4.0322099203870293e-08 0.87500000000000000 0.062500000000000000 0.87499494848379999 0.062476885318914134 
0.93750000000000000 0.0000000000000000 0.0000000000000000 -6.3178319725931520e-06 -2.4384439693047575e-05 0.0047332479254883581 4.9102409891734950e-09 0.0000000000000000 0.93750000000000000 0.0000000000000000 0.93749368216802742 -2.4384439693047575e-05 
0.93750000000000000 0.062500000000000000 0.0000000000000000 -5.0526339507855903e-06 -2.4386477366380139e-05 0.011960629290147434 2.4020226773507194e-08 -2.3765289739324788e-08 0.93750000000000000 0.062500000000000000 0.93749494736604932 0.062475613522633623 
1.0000000000000000 0.0000000000000000 0.0000000000000000 -6.3160229040441137e-06 -2.5630309558061093e-05 0.0014177763281502196 0.0000000000000000 0.0000000000000000 1.0000000000000000 0.0000000000000000 0.99999368397709598 -2.5630309558061093e-05 
1.0000000000000000 0.062500000000000000 0.0000000000000000 -5.0547191277245466e-06 -2.5628535589451617e-05 0.0047591374663231920 0.0000000000000000 -5.1275945807779359e-09 1.0000000000000000 0.062500000000000000 0.99999494528087229 0.062474371464410546 
0.062500000000000000 0.12500000000000000 0.0000000000000000 -1.5817119152698591e-07 -1.6021811827673047e-06 1.3112563537135922 1.1230326775169724e-07 4.7295713157158306e-07 0.062500000000000000 0.12500000000000000 0.062499841828808474 0.12499839781881723 
0.0000000000000000 0.12500000000000000 0.0000000000000000 0.0000000000000000 0.0000000000000000 1.2797408002311046 0.0000000000000000 6.3809599271935654e-07 0.0000000000000000 0.12500000000000000 0.0000000000000000 0.12500000000000000 
0.12500000000000000 0.12500000000000000 0.0000000000000000 -5.9201336208398553e-07 -3.4405242621352323e-06 1.1317550766949569 4.0306807181667493e-07 2.7836610367396815e-07 0.12500000000000000 0.12500000000000000 0.12499940798663790 0.12499655947573786 
0.18750000000000000 0.12500000000000000 0.0000000000000000 -1.1991740415806856e-06 -5.3510133403403757e-06 0.89595019526670960 3.5239628934550531e-07 9.8701055613642765e-08 0.18750000000000000 0.12500000000000000 0.18749880082595841 0.12499464898665967 
0.25000000000000000 0.12500000000000000 0.0000000000000000 -1.7625127047663878e-06 -7.1793955847634608e-06 0.71511038360390844 2.3331737144502380e-07 5.7246458024462784e-08 0.25000000000000000 0.12500000000000000 0.24999823748729524 0.12499282060441523 
0.31250000000000000 0.12500000000000000 0.0000000000000000 -2.2510597851284611e-06 -8.9612513173205371e-06 0.58238887178228316 1.8354764264165421e-07 4.3177215899197904e-08 0.31250000000000000 0.12500000000000000 0.31249774894021481 0.12499103874868268 
0.37500000000000000 0.12500000000000000 0.0000000000000000 -2.6612284238426469e-06 -1.0712466846945488e-05 0.47815779181749002 1.4938815334169752e-07 2.5996219091686923e-08 0.37500000000000000 0.12500000000000000 0.37499733877157615 0.12498928753315307 
0.43750000000000000 0.12500000000000000 0.0000000000000000 -2.9967225106405307e-06 -1.2434587062239136e-05 0.39138542508843305 1.2767595357986160e-07 9.7922517359320311e-09 0.43750000000000000 0.12500000000000000 0.43749700327748936 0.12498756541293776 
0.50000000000000000 0.12500000000000000 0.0000000000000000 -3.2635389697712917e-06 -1.4122338466042055e-05 0.31694511845890833 1.1057259457762709e-07 -5.6352738806791166e-09 0.50000000000000000 0.12500000000000000 0.49999673646103021 0.12498587766153398 
0.56250000000000000 0.12500000000000000 0.0000000000000000 -3.4684600351082011e-06 -1.5767733232743622e-05 0.25251209456856261 9.5712770872769412e-08 -1.9205364845842964e-08 0.56250000000000000 0.12500000000000000 0.56249653153996493 0.12498423226676726 
0.62500000000000000 0.12500000000000000 0.0000000000000000 -3.6185681579596286e-06 -1.7362260165157325e-05 0.19696576394276133 8.2044142683635900e-08 -3.0241357265307611e-08 0.62500000000000000 0.12500000000000000 0.62499638143184200 0.12498263773983485 
0.68750000000000000 0.12500000000000000 0.0000000000000000 -3.7211353890404947e-06 -1.8898193879241564e-05 0.14960863273132596 6.9425164608173865e-08 -3.8100189994608382e-08 0.68750000000000000 0.12500000000000000 0.68749627886461095 0.12498110180612076 
0.75000000000000000 0.12500000000000000 0.0000000000000000 -3.7837097095527549e-06 -2.0369584545810862e-05 0.10976389651471402 5.7807105273004377e-08 -4.2216664753686322e-08 0.75000000000000000 0.12500000000000000 0.74999621629029045 0.12497963041545419 
0.81250000000000000 0.12500000000000000 0.0000000000000000 -3.8143900061554236e-06 -2.1773269823687312e-05 0.076592208910119267 4.8736375064394599e-08 -4.1873725614542160e-08 0.81250000000000000 0.12500000000000000 0.81249618560999382 0.12497822673017632 
0.87500000000000000 0.12500000000000000 0.0000000000000000 -3.8223421667950172e-06 -2.3110163335236216e-05 0.049140931139534223 3.8321163437820655e-08 -3.7145218398872840e-08 0.87500000000000000 0.12500000000000000 0.87499617765783311 0.12497688983666476 
0.93750000000000000 0.12500000000000000 0.0000000000000000 -3.8186429857384447e-06 -2.4387083418555519e-05 0.027092501451658636 3.9675228649712747e-08 -2.7072455754623266e-08 0.93750000000000000 0.12500000000000000 0.93749618135701429 0.12497561291658145 
1.0000000000000000 0.12500000000000000 0.0000000000000000 -3.8173928314423638e-06 -2.5619657892694929e-05 0.013719570208433965 0.0000000000000000 -1.7235034561258175e-08 1.0000000000000000 0.12500000000000000 0.99999618260716849 0.12497438034210732 
0.062500000000000000 0.18750000000000000 0.0000000000000000 -8.3608457575066173e-08 -1.3790666423342246e-06 1.0145278607678396 3.6070737224427982e-08 4.2308681754966721e-07 0.062500000000000000 0.18750000000000000 0.062499916391542419 0.18749862093335767 
0.0000000000000000 0.18750000000000000 0.0000000000000000 0.0000000000000000 0.0000000000000000 0.96281773636194767 0.0000000000000000 4.8564301964649212e-07 0.0000000000000000 0.18750000000000000 0.0000000000000000 0.18750000000000000 
0.12500000000000000 0.18750000000000000 0.0000000000000000 -3.0898784755735608e-07 -3.0306967372068416e-06 0.94354105414959610 1.9203466151668734e-07 3.3618492721266220e-07 0.12500000000000000 0.18750000000000000 0.12499969101215246 0.18749696930326279 
0.18750000000000000 0.18750000000000000 0.0000000000000000 -6.5620921194363062e-07 -4.8430855953938642e-06 0.81009853517087171 2.3633932263771555e-07 1.8178908393762293e-07 0.18750000000000000 0.18750000000000000 0.18749934379078806 0.18749515691440458 
0.25000000000000000 0.18750000000000000 0.0000000000000000 -1.0599631225478470e-06 -6.7061227384355445e-06 0.66774079038655909 2.0568357021167214e-07 9.8548734404782188e-08 0.25000000000000000 0.18750000000000000 0.24999894003687742 0.18749329387726157 
0.31250000000000000 0.18750000000000000 0.0000000000000000 -1.4385209827384871e-06 -8.5513405609398495e-06 0.55105230028897301 1.6291547251068166e-07 6.5148753708126493e-08 0.31250000000000000 0.18750000000000000 0.31249856147901728 0.18749144865943904 
0.37500000000000000 0.18750000000000000 0.0000000000000000 -1.7672084996289220e-06 -1.0370296228394596e-05 0.45847277673616854 1.3077765902765072e-07 4.1551995386174347e-08 0.37500000000000000 0.18750000000000000 0.37499823279150041 0.18748962970377162 
0.43750000000000000 0.18750000000000000 0.0000000000000000 -2.0397303622910392e-06 -1.2157584261702293e-05 0.38247097521499368 1.1017502213018286e-07 2.2250409984217016e-08 0.43750000000000000 0.18750000000000000 0.43749796026963766 0.18748784241573827 
0.50000000000000000 0.18750000000000000 0.0000000000000000 -2.2567494088718730e-06 -1.3905604723729421e-05 0.31806701708833068 9.4523145329922352e-08 4.5664930221421577e-09 0.50000000000000000 0.18750000000000000 0.49999774325059115 0.18748609439527628 
0.56250000000000000 0.18750000000000000 0.0000000000000000 -2.4217699832851099e-06 -1.5605500110990581e-05 0.26256193373757669 8.1864217991278348e-08 -1.1002815248690799e-08 0.56250000000000000 0.18750000000000000 0.56249757823001667 0.18748439449988899 
0.62500000000000000 0.18750000000000000 0.0000000000000000 -2.5395090830213245e-06 -1.7248378390512850e-05 0.21445835245382919 7.0962078406630027e-08 -2.4163558215349576e-08 0.62500000000000000 0.18750000000000000 0.62499746049091698 0.18748275162160952 
0.68750000000000000 0.18750000000000000 0.0000000000000000 -2.6152846806224634e-06 -1.8826221937810919e-05 0.17272583460930466 6.1623692563696817e-08 -3.4504225901168389e-08 0.68750000000000000 0.18750000000000000 0.68749738471531952 0.18748117377806220 
0.75000000000000000 0.18750000000000000 0.0000000000000000 -2.6549278368384347e-06 -2.0332599414304478e-05 0.13638087358868858 5.3796842261301357e-08 -4.1712415890372460e-08 0.75000000000000000 0.18750000000000000 0.74999734507216320 0.18747966740058566 
0.81250000000000000 0.18750000000000000 0.0000000000000000 -2.6650893444426797e-06 -2.1763355435753615e-05 0.10430356990848579 4.8913612193810402e-08 -4.5289812506890843e-08 0.81250000000000000 0.18750000000000000 0.81249733491065557 0.18747823664456423 
0.87500000000000000 0.18750000000000000 0.0000000000000000 -2.6539545390493056e-06 -2.3117430874734816e-05 0.075354276536880704 4.2728890672357002e-08 -4.5519722040819680e-08 0.87500000000000000 0.18750000000000000 0.87499734604546109 0.18747688256912529 
0.93750000000000000 0.18750000000000000 0.0000000000000000 -2.6324567716609286e-06 -2.4397980721549605e-05 0.049470033435077033 4.9059592721716957e-08 -4.0402707112217721e-08 0.93750000000000000 0.18750000000000000 0.93749736754322832 0.18747560201927846 
1.0000000000000000 0.18750000000000000 0.0000000000000000 -2.6159533769126796e-06 -2.5614193503855289e-05 0.031207219261957853 0.0000000000000000 -3.8277876758363130e-08 1.0000000000000000 0.18750000000000000 0.99999738404662308 0.18747438580649614 
0.062500000000000000 0.25000000000000000 0.0000000000000000 -4.5480339457667876e-08 -1.2654256542841335e-06 0.77127918580537314 -2.3380535562798730e-08 3.4072732795008324e-07 0.062500000000000000 0.25000000000000000 0.062499954519660540 0.24999873457434571 
0.0000000000000000 0.25000000000000000 0.0000000000000000 0.0000000000000000 0.0000000000000000 0.71599653350152204 0.0000000000000000 3.7950665329060448e-07 0.0000000000000000 0.25000000000000000 0.0000000000000000 0.25000000000000000 
0.12500000000000000 0.25000000000000000 0.0000000000000000 -1.5998702830314101e-07 -2.8068894392283602e-06 0.74591590925515738 9.3573053397637533e-08 2.9865699394011822e-07 0.12500000000000000 0.25000000000000000 0.12499984001297169 0.24999719311056076 
0.18750000000000000 0.25000000000000000 0.0000000000000000 -3.4698144709258071e-07 -4.5388200622042347e-06 0.67770819511307145 1.2951678297515532e-07 2.2470743314661530e-07 0.18750000000000000 0.25000000000000000 0.18749965301855290 0.24999546117993779 
0.25000000000000000 0.25000000000000000 0.0000000000000000 -5.8461625091973024e-07 -6.3746036840133545e-06 0.58912619278980172 1.4696608094135493e-07 1.4913800250887749e-07 0.25000000000000000 0.25000000000000000 0.24999941538374906 0.24999362539631598 
0.31250000000000000 0.25000000000000000 0.0000000000000000 -8.3475504063068030e-07 -8.2457205800372095e-06 0.50163406702171964 1.2905335448035776e-07 9.3135093182973992e-08 0.31250000000000000 0.25000000000000000 0.31249916524495935 0.24999175427941997 
0.37500000000000000 0.25000000000000000 0.0000000000000000 -1.0622572071056009e-06 -1.0109211259588707e-05 0.42672784342161302 1.0728282046562366e-07 6.0434562643896656e-08 0.37500000000000000 0.25000000000000000 0.37499893774279291 0.24998989078874037 
0.43750000000000000 0.25000000000000000 0.0000000000000000 -1.2526453567195355e-06 -1.1945830447406693e-05 0.36429166057454382 9.0212273212025937e-08 3.6288162512161561e-08 0.43750000000000000 0.25000000000000000 0.43749874735464328 0.24998805416955258 
0.50000000000000000 0.25000000000000000 0.0000000000000000 -1.4015127233096002e-06 -1.3742440447346475e-05 0.31153243606264885 7.7062578168525064e-08 1.6195227455050266e-08 0.50000000000000000 0.25000000000000000 0.49999859848727674 0.24998625755955264 
0.56250000000000000 0.25000000000000000 0.0000000000000000 -1.5091268944394799e-06 -1.5487849994692665e-05 0.26619767291968910 6.6790311319623205e-08 -1.0440116066349343e-09 0.56250000000000000 0.25000000000000000 0.56249849087310555 0.24998451215000531 
0.62500000000000000 0.25000000000000000 0.0000000000000000 -1.5779318348630713e-06 -1.7172109456606872e-05 0.22678092475302647 5.8396073359635640e-08 -1.5836327879264316e-08 0.62500000000000000 0.25000000000000000 0.62499842206816514 0.24998282789054338 
0.68750000000000000 0.25000000000000000 0.0000000000000000 -1.6114670756934437e-06 -1.8786570412910491e-05 0.19214679380861668 5.1727500858125576e-08 -2.8190035090603052e-08 0.68750000000000000 0.25000000000000000 0.68749838853292433 0.24998121342958710 
0.75000000000000000 0.25000000000000000 0.0000000000000000 -1.6140604115713434e-06 -2.0324083506097118e-05 0.16119632692753341 4.6756609025606353e-08 -3.8137032778087267e-08 0.75000000000000000 0.25000000000000000 0.74999838593958845 0.24997967591649387 
0.81250000000000000 0.25000000000000000 0.0000000000000000 -1.5910657154755895e-06 -2.1779215841499953e-05 0.13269605011144273 4.4768665928035679e-08 -4.5475536246933120e-08 0.81250000000000000 0.25000000000000000 0.81249840893428449 0.24997822078415852 
0.87500000000000000 0.25000000000000000 0.0000000000000000 -1.5496013330701439e-06 -2.3148479645888036e-05 0.10539756750987274 4.1794746178713837e-08 -5.0754424356097894e-08 0.87500000000000000 0.25000000000000000 0.87499845039866708 0.24997685152035412 
0.93750000000000000 0.25000000000000000 0.0000000000000000 -1.4998308207301498e-06 -2.4430579516109523e-05 0.079226221922246556 5.0978406450035836e-08 -5.1636552800869199e-08 0.93750000000000000 0.25000000000000000 0.93749850016917924 0.24997556942048391 
1.0000000000000000 0.25000000000000000 0.0000000000000000 -1.4566209422958583e-06 -2.5626743095756438e-05 0.058171509506449059 0.0000000000000000 -5.5946841247644988e-08 1.0000000000000000 0.25000000000000000 0.99999854337905758 0.24997437325690428 
0.062500000000000000 0.31250000000000000 0.0000000000000000 -2.2592646360156208e-08 -1.2136958884141627e-06 0.56901781467253831 -5.1255206252240090e-08 2.9454281135712330e-07 0.062500000000000000 0.31250000000000000 0.062499977407353642 0.31249878630411160 
0.0000000000000000 0.31250000000000000 0.0000000000000000 0.0000000000000000 0.0000000000000000 0.51206716402704955 0.0000000000000000 3.1816605301944907e-07 0.0000000000000000 0.31250000000000000 0.0000000000000000 0.31250000000000000 
0.12500000000000000 0.31250000000000000 0.0000000000000000 -6.9076852102628308e-08 -2.6963934273721161e-06 0.56831947972036212 4.4151587823792561e-08 2.6680415183926651e-07 0.12500000000000000 0.31250000000000000 0.12499993092314789 0.31249730360657263 
0.18750000000000000 0.31250000000000000 0.0000000000000000 -1.5010791432172613e-07 -4.3779108227007077e-06 0.53780957544483310 6.4842292195214207e-08 2.1795080304130619e-07 0.18750000000000000 0.31250000000000000 0.18749984989208568 0.31249562208917731 
0.25000000000000000 0.31250000000000000 0.0000000000000000 -2.6066805138197807e-07 -6.1858084325503099e-06 0.49044285163624418 8.3736676602254355e-08 1.6419451419062114e-07 0.25000000000000000 0.31250000000000000 0.24999973933194861 0.31249381419156746 
0.31250000000000000 0.31250000000000000 0.0000000000000000 -3.8482062336937371e-07 -8.0574810989995965e-06 0.43643661935542893 8.5822237887892823e-08 1.1378061938216153e-07 0.31250000000000000 0.31250000000000000 0.31249961517937663 0.31249194251890100 
0.37500000000000000 0.31250000000000000 0.0000000000000000 -5.0295822198009648e-07 -9.9447734367501093e-06 0.38428921125573295 7.7885081462070371e-08 7.5427106298932967e-08 0.37500000000000000 0.31250000000000000 0.37499949704177804 0.31249005522656326 
0.43750000000000000 0.31250000000000000 0.0000000000000000 -5.9962234179383429e-07 -1.1815124646524452e-05 0.33833611178973405 6.7096690448694352e-08 4.7101990297628257e-08 0.43750000000000000 0.31250000000000000 0.43749940037765817 0.31248818487535340 
0.50000000000000000 0.31250000000000000 0.0000000000000000 -6.6778504989713236e-07 -1.3648216853571599e-05 0.29883519912141254 5.7695661258669632e-08 2.4642534447230721e-08 0.50000000000000000 0.31250000000000000 0.49999933221495008 0.31248635178314643 
0.56250000000000000 0.31250000000000000 0.0000000000000000 -7.0548676549715870e-07 -1.5429414093625388e-05 0.26476848063630304 5.0088192917056651e-08 5.7530348021701239e-09 0.56250000000000000 0.31250000000000000 0.56249929451323455 0.31248457058590645 
0.62500000000000000 0.31250000000000000 0.0000000000000000 -7.1342010419985827e-07 -1.7147110631181632e-05 0.23506030313793999 4.4027069359837582e-08 -1.0525443455092230e-08 0.62500000000000000 0.31250000000000000 0.62499928657989579 0.31248285288936883 
0.68750000000000000 0.31250000000000000 0.0000000000000000 -6.9366735715145742e-07 -1.8791723455900811e-05 0.20873540955494177 3.9514212168157633e-08 -2.4620647276396141e-08 0.68750000000000000 0.31250000000000000 0.68749930633264278 0.31248120827654408 
0.75000000000000000 0.31250000000000000 0.0000000000000000 -6.4923460392198098e-07 -2.0355230551446689e-05 0.18477842650699997 3.6618513592778272e-08 -3.6866244958827895e-08 0.75000000000000000 0.31250000000000000 0.74999935076539603 0.31247964476944862 
0.81250000000000000 0.31250000000000000 0.0000000000000000 -5.8417460374615094e-07 -2.1830839091859931e-05 0.16200869204200852 3.6440753791288424e-08 -4.7336337730917991e-08 0.81250000000000000 0.31250000000000000 0.81249941582539620 0.31247816916090815 
0.87500000000000000 0.31250000000000000 0.0000000000000000 -5.0422734149279831e-07 -2.3212599359939467e-05 0.13916343567905728 3.5774558804511436e-08 -5.6773355316259311e-08 0.87500000000000000 0.31250000000000000 0.87499949577265845 0.31247678740064005 
0.93750000000000000 0.31250000000000000 0.0000000000000000 -4.1797438400256243e-07 -2.4494817842607123e-05 0.11594919203327374 4.6237061365705187e-08 -6.2653365412856259e-08 0.93750000000000000 0.31250000000000000 0.93749958202561601 0.31247550518215744 
1.0000000000000000 0.31250000000000000 0.0000000000000000 -3.3823753050767886e-07 -2.5671084904212792e-05 0.094289406047752086 0.0000000000000000 -7.2342737501252327e-08 1.0000000000000000 0.31250000000000000 0.99999966176246946 0.31247432891509580 
0.062500000000000000 0.37500000000000000 0.0000000000000000 -7.1620203104106832e-09 -1.2005879173720881e-06 0.39306158710629657 -7.3085994777911156e-08 2.6475091445579401e-07 0.062500000000000000 0.37500000000000000 0.062499992837979690 0.37499879941208264 
0.0000000000000000 0.37500000000000000 0.0000000000000000 0.0000000000000000 0.0000000000000000 0.33353979704116732 0.0000000000000000 2.8362547776520507e-07 0.0000000000000000 0.37500000000000000 0.0000000000000000 0.37500000000000000 
0.12500000000000000 0.37500000000000000 0.0000000000000000 -6.6812411996259179e-09 -2.6618557827446569e-06 0.40979119349589355 7.7588013586025962e-09 2.4067334064023995e-07 0.12500000000000000 0.37500000000000000 0.12499999331875879 0.37499733814421726 
0.18750000000000000 0.37500000000000000 0.0000000000000000 -1.0475315477763569e-08 -4.3215211121719032e-06 0.40475512321628165 1.9342039940358926e-08 2.0401710216994619e-07 0.18750000000000000 0.37500000000000000 0.18749998952468452 0.37499567847888787 
0.25000000000000000 0.37500000000000000 0.0000000000000000 -2.1480695476531029e-08 -6.1150765808831456e-06 0.38695282079422172 3.6377134057009829e-08 1.6386043450331860e-07 0.25000000000000000 0.37500000000000000 0.24999997851930453 0.37499388492341912 
0.31250000000000000 0.37500000000000000 0.0000000000000000 -3.5936874031830782e-08 -7.9849056829446142e-06 0.36171069475091772 4.3363933128533642e-08 1.2280797084657676e-07 0.31250000000000000 0.37500000000000000 0.31249996406312602 0.37499201509431707 
0.37500000000000000 0.37500000000000000 0.0000000000000000 -4.6284630844093672e-08 -9.8835982136304601e-06 0.33352029320789023 4.4738716714961251e-08 8.5880851572268934e-08 0.37500000000000000 0.37500000000000000 0.37499995371536915 0.37499011640178637 
0.43750000000000000 0.37500000000000000 0.0000000000000000 -4.4380435266450851e-08 -1.1774999283292831e-05 0.30607052812445140 4.1312435592089744e-08 5.5589868347993866e-08 0.43750000000000000 0.37500000000000000 0.43749995561956473 0.37498822500071677 
0.50000000000000000 0.37500000000000000 0.0000000000000000 -2.4421026284815314e-08 -1.3633309014378703e-05 0.28128528576038331 3.6545930879574179e-08 3.1238498311024574e-08 0.50000000000000000 0.37500000000000000 0.49999997557897374 0.37498636669098562 
0.56250000000000000 0.37500000000000000 0.0000000000000000 1.6005299251052148e-08 -1.5440475745770264e-05 0.25950409441397954 3.2014349005583072e-08 1.0903149138970248e-08 0.56250000000000000 0.37500000000000000 0.56250001600529920 0.37498455952425425 
0.62500000000000000 0.37500000000000000 0.0000000000000000 7.7071347188747942e-08 -1.7183076929245524e-05 0.24038344817644855 2.8273003301171431e-08 -6.6099837511259573e-09 0.62500000000000000 0.37500000000000000 0.62500007707134719 0.37498281692307073 
0.68750000000000000 0.37500000000000000 0.0000000000000000 1.5768612278510093e-07 -1.8850515586882427e-05 0.22334684685075654 2.5573964304724884e-08 -2.2058448347636706e-08 0.68750000000000000 0.37500000000000000 0.68750015768612283 0.37498114948441313 
0.75000000000000000 0.37500000000000000 0.0000000000000000 2.5595867567641667e-07 -2.0433935737339165e-05 0.20764815474214568 2.4154372578342663e-08 -3.6031406065073290e-08 0.75000000000000000 0.37500000000000000 0.75000025595867570 0.37497956606426269 
0.81250000000000000 0.37500000000000000 0.0000000000000000 3.6917359815349650e-07 -2.1925361230451426e-05 0.19231288282530082 2.4914042818625273e-08 -4.8866901376936334e-08 0.81250000000000000 0.37500000000000000 0.81250036917359825 0.37497807463876948 
0.87500000000000000 0.37500000000000000 0.0000000000000000 4.9331089840721833e-07 -2.3316753068244003e-05 0.17615869080894905 2.5783227313278285e-08 -6.1416454244445468e-08 0.87500000000000000 0.37500000000000000 0.87500049331089824 0.37497668324693173 