# For a description of the Tecplot format see the Tecplot User's guide.
#
Variables=x,y,z,s_u,s_v,s_p,x,y,ref_u,ref_v,u,v
Zone f=fepoint, n=289, e=512, et=quadrilateral, c=black
0.00000 0.00000 0.00000 0.0000000000000000 0.0000000000000000 1.9184725466051198 0.0000000000000000 0.0000000000000000 0.0000000000000000 0.0000000000000000 0.0000000000000000 0.0000000000000000 
0.062500000000000000 0.0000000000000000 0.0000000000000000 -1.5548342121108090e-06 -3.2409504189016953e-06 1.5376090050665834 1.3829298261136569e-06 0.0000000000000000 0.062500000000000000 0.0000000000000000 0.062498445165787890 -3.2409504189016953e-06 
0.062500000000000000 0.062500000000000000 0.0000000000000000 -3.6541062621450991e-07 -2.0491641899921380e-06 1.5801222069537337 8.0751631329484623e-07 3.8250996329763968e-07 0.062500000000000000 0.062500000000000000 0.062499634589373791 0.062497950835810008 
0.0000000000000000 0.062500000000000000 0.0000000000000000 0.0000000000000000 0.0000000000000000 1.6595486402240696 0.0000000000000000 1.0941373636072849e-06 0.0000000000000000 0.062500000000000000 0.0000000000000000 0.062500000000000000 
0.12500000000000000 0.0000000000000000 0.0000000000000000 -2.6092849626357673e-06 -5.1416041841898819e-06 1.1128365890392846 4.6327655251922542e-07 0.0000000000000000 0.12500000000000000 0.0000000000000000 0.12499739071503736 -5.1416041841898819e-06 
0.12500000000000000 0.062500000000000000 0.0000000000000000 -1.3031440955612119e-06 -4.2041064908795494e-06 1.1932608809233070 4.7231633395454707e-07 -1.6038840610273931e-07 0.12500000000000000 0.062500000000000000 0.12499869685590444 0.062495795893509121 
0.18750000000000000 0.0000000000000000 0.0000000000000000 -3.4522443119279984e-06 -6.8011523751370787e-06 0.86439684467052080 3.2202484011153921e-07 0.0000000000000000 0.18750000000000000 0.0000000000000000 0.18749654775568811 -6.8011523751370787e-06 
0.18750000000000000 0.062500000000000000 0.0000000000000000 -2.1027413266122210e-06 -6.0398921913705309e-06 0.91426798447314794 3.5781716046428949e-07 -3.1070238911590195e-08 0.18750000000000000 0.062500000000000000 0.18749789725867338 0.062493960107808631 
0.25000000000000000 0.0000000000000000 0.0000000000000000 -4.1495565885839739e-06 -8.3962986822621089e-06 0.69647198800495191 2.3756886945563311e-07 0.0000000000000000 0.25000000000000000 0.0000000000000000 0.24999585044341141 -8.3962986822621089e-06 
0.25000000000000000 0.062500000000000000 0.0000000000000000 -2.7751104576847123e-06 -7.7685330238430090e-06 0.72942919991546429 2.4129192451158948e-07 -1.8082207846561927e-08 0.25000000000000000 0.062500000000000000 0.24999722488954232 0.062492231466976154 
0.31250000000000000 0.0000000000000000 0.0000000000000000 -4.7264287856555729e-06 -9.9726134291250876e-06 0.56653776217170548 1.9601361553968310e-07 0.0000000000000000 0.31250000000000000 0.0000000000000000 0.31249527357121437 -9.9726134291250876e-06 
0.31250000000000000 0.062500000000000000 0.0000000000000000 -3.3354602972884981e-06 -9.4561455333117512e-06 0.59286489771584738 1.9317261043994962e-07 -1.0665483834556658e-08 0.31250000000000000 0.062500000000000000 0.31249666453970271 0.062490543854466681 
0.37500000000000000 0.0000000000000000 0.0000000000000000 -5.1965626899793056e-06 -1.1540787803021477e-05 0.45769643555314171 1.7073777584581296e-07 0.0000000000000000 0.37500000000000000 0.0000000000000000 0.37499480343731001 -1.1540787803021477e-05 
0.37500000000000000 0.062500000000000000 0.0000000000000000 -3.7961481514854086e-06 -1.1121754759813245e-05 0.48229326827637425 1.6233114571729918e-07 -1.5761517396815491e-08 0.37500000000000000 0.062500000000000000 0.37499620385184856 0.062488878245240187 
0.43750000000000000 0.0000000000000000 0.0000000000000000 -5.5701356784111806e-06 -1.3099026166140133e-05 0.36324705783270866 1.5093672258431543e-07 0.0000000000000000 0.43750000000000000 0.0000000000000000 0.43749442986432158 -1.3099026166140133e-05 
0.43750000000000000 0.062500000000000000 0.0000000000000000 -4.1676797012001072e-06 -1.2766798263927471e-05 0.38811056185620635 1.4030168925344016e-07 -2.4948672406846315e-08 0.43750000000000000 0.062500000000000000 0.43749583232029882 0.062487233201736082 
0.50000000000000000 0.0000000000000000 0.0000000000000000 -5.8565061339493561e-06 -1.4640650224876973e-05 0.28065697785646782 1.3283765981510568e-07 0.0000000000000000 0.50000000000000000 0.0000000000000000 0.49999414349386601 -1.4640650224876973e-05 
0.50000000000000000 0.062500000000000000 0.0000000000000000 -4.4595921502562615e-06 -1.4385693023403266e-05 0.30633778527294281 1.2188604103660731e-07 -3.5225365399680033e-08 0.50000000000000000 0.062500000000000000 0.49999554040784977 0.062485614306976599 
0.56250000000000000 0.0000000000000000 0.0000000000000000 -6.0652490515203740e-06 -1.6157341513948934e-05 0.20911045717478194 1.1480101610447894e-07 0.0000000000000000 0.56250000000000000 0.0000000000000000 0.56249393475094844 -1.6157341513948934e-05 
0.56250000000000000 0.062500000000000000 0.0000000000000000 -4.6810336200176354e-06 -1.5970296236528168e-05 0.23538915865287627 1.0486535157360719e-07 -4.4666813119474965e-08 0.56250000000000000 0.062500000000000000 0.56249531896637983 0.062484029703763481 
0.62500000000000000 0.0000000000000000 0.0000000000000000 -6.2065961508146744e-06 -1.7640824604143466e-05 0.14848127042967410 9.6148481358868437e-08 0.0000000000000000 0.62500000000000000 0.0000000000000000 0.62499379340384920 -1.7640824604143466e-05 
0.62500000000000000 0.062500000000000000 0.0000000000000000 -4.8411118785391706e-06 -1.7512097164550271e-05 0.17466994972471514 8.8371426028010626e-08 -5.1978007187216393e-08 0.62500000000000000 0.062500000000000000 0.62499515888812152 0.062482487902835449 
0.68750000000000000 0.0000000000000000 0.0000000000000000 -6.2916624643545185e-06 -1.9083957278514165e-05 0.098857851743034408 7.6860764945244823e-08 0.0000000000000000 0.68750000000000000 0.0000000000000000 0.68749370833753565 -1.9083957278514165e-05 
0.68750000000000000 0.062500000000000000 0.0000000000000000 -4.9491096548769284e-06 -1.9003519591596092e-05 0.12393148502378344 7.2265935636250568e-08 -5.6081001978276608e-08 0.68750000000000000 0.062500000000000000 0.68749505089034513 0.062480996480408398 
0.75000000000000000 0.0000000000000000 0.0000000000000000 -6.3325920182325484e-06 -2.0481677627073146e-05 0.060266599548075783 5.6678880181263246e-08 0.0000000000000000 0.75000000000000000 0.0000000000000000 0.74999366740798179 -2.0481677627073146e-05 
0.75000000000000000 0.062500000000000000 0.0000000000000000 -5.0146363710937320e-06 -2.0438959244203569e-05 0.082931466024040959 5.6561343392886749e-08 -5.5986946338731764e-08 0.75000000000000000 0.062500000000000000 0.74999498536362885 0.062479561040755797 
0.81250000000000000 0.0000000000000000 0.0000000000000000 -6.3426234750308961e-06 -2.1832090974342006e-05 0.032470338381386014 3.7644284118786789e-08 0.0000000000000000 0.81250000000000000 0.0000000000000000 0.81249365737652501 -2.1832090974342006e-05 
0.81250000000000000 0.062500000000000000 0.0000000000000000 -5.0477626162148305e-06 -2.1815924029537785e-05 0.051240918481074670 4.2639121168197514e-08 -5.0672579791410790e-08 0.81250000000000000 0.062500000000000000 0.81249495223738377 0.062478184075970465 
0.87500000000000000 0.0000000000000000 0.0000000000000000 -6.3359183596067619e-06 -2.3137869083251036e-05 0.014753065198953641 1.6932208490564335e-08 0.0000000000000000 0.87500000000000000 0.0000000000000000 0.87499366408164037 -2.3137869083251036e-05 
0.87500000000000000 0.062500000000000000 0.0000000000000000 -5.0591484454746763e-06 -2.3136546210595705e-05 0.028162516025861322 2.8135497672452588e-08 -3.9594433439705456e-08 0.87500000000000000 0.062500000000000000 0.87499494085155438 0.062476863453789395 
0.93750000000000000 0.0000000000000000 0.0000000000000000 -6.3266392860606019e-06 -2.4407776160030939e-05 0.0056639245107879821 5.4291216347567447e-09 0.0000000000000000 0.93750000000000000 0.0000000000000000 0.93749367336071410 -2.4407776160030939e-05 
0.93750000000000000 0.062500000000000000 0.0000000000000000 -5.0601052980792124e-06 -2.4409655029788094e-05 0.012886569874076596 2.3720885900330720e-08 -2.3482341220485774e-08 0.93750000000000000 0.062500000000000000 0.93749493989470178 0.062475590344970210 
1.0000000000000000 0.0000000000000000 0.0000000000000000 -6.3246718191680650e-06 -2.5655030604550592e-05 0.0023505221321871673 0.0000000000000000 0.0000000000000000 1.0000000000000000 0.0000000000000000 0.99999367532818084 -2.5655030604550592e-05 
1.0000000000000000 0.062500000000000000 0.0000000000000000 -5.0620319703938539e-06 -2.5653098275686247e-05 0.0056862790458688806 0.0000000000000000 -5.6219805387669181e-09 1.0000000000000000 0.062500000000000000 0.99999493796802963 0.062474346901724313 
0.062500000000000000 0.12500000000000000 0.0000000000000000 -1.6333747999405001e-07 -1.6043516672553586e-06 1.2979244299783883 1.0413131131914076e-07 4.6277585835839190e-07 0.062500000000000000 0.12500000000000000 0.062499836662520007 0.12499839564833275 
0.0000000000000000 0.12500000000000000 0.0000000000000000 0.0000000000000000 0.0000000000000000 1.2653723203389597 0.0000000000000000 6.1628096634402965e-07 0.0000000000000000 0.12500000000000000 0.0000000000000000 0.12500000000000000 
0.12500000000000000 0.12500000000000000 0.0000000000000000 -5.9989446425839100e-07 -3.4449359385873589e-06 1.1248692811958054 3.9245838863955846e-07 2.7068152589087110e-07 0.12500000000000000 0.12500000000000000 0.12499940010553574 0.12499655506406142 
0.18750000000000000 0.12500000000000000 0.0000000000000000 -1.2070474457092549e-06 -5.3568724135440096e-06 0.89476889303771190 3.4699164698678772e-07 9.7723889424004196e-08 0.18750000000000000 0.12500000000000000 0.18749879295255426 0.12499464312758646 
0.25000000000000000 0.12500000000000000 0.0000000000000000 -1.7701502027387895e-06 -7.1871808443595002e-06 0.71559660607637665 2.3352627382478360e-07 5.5699660655588711e-08 0.25000000000000000 0.12500000000000000 0.24999822984979722 0.12499281281915564 
0.31250000000000000 0.12500000000000000 0.0000000000000000 -2.2585203699743680e-06 -8.9708418755457324e-06 0.58296062888155531 1.8397362106956507e-07 4.1270226362334547e-08 0.31250000000000000 0.12500000000000000 0.31249774147963000 0.12499102915812445 
0.37500000000000000 0.12500000000000000 0.0000000000000000 -2.6685672552107715e-06 -1.0723672872537738e-05 0.47856585523327561 1.4969400988747816e-07 2.4464942716841481e-08 0.37500000000000000 0.12500000000000000 0.37499733143274477 0.12498927632712746 
0.43750000000000000 0.12500000000000000 0.0000000000000000 -3.0039503032471708e-06 -1.2447274834812568e-05 0.39172590321087947 1.2773760527239476e-07 8.6743260071083602e-09 0.43750000000000000 0.12500000000000000 0.43749699604969677 0.12498755272516519 
0.50000000000000000 0.12500000000000000 0.0000000000000000 -3.2706415420469267e-06 -1.4136424537301486e-05 0.31731864106420443 1.1050314230259563e-07 -6.3468228085128162e-09 0.50000000000000000 0.12500000000000000 0.49999672935845796 0.12498586357546269 
0.56250000000000000 0.12500000000000000 0.0000000000000000 -3.4754164160761911e-06 -1.5783161795346209e-05 0.25296568960793991 9.5605875144231472e-08 -1.9573477697126402e-08 0.56250000000000000 0.12500000000000000 0.56249652458358390 0.12498421683820467 
0.62500000000000000 0.12500000000000000 0.0000000000000000 -3.6253618145513645e-06 -1.7378988895970589e-05 0.19750206975795639 8.1954843482467063e-08 -3.0333913738674134e-08 0.62500000000000000 0.12500000000000000 0.62499637463818558 0.12498262101110402 
0.68750000000000000 0.12500000000000000 0.0000000000000000 -3.7277600956356566e-06 -1.8916189274927115e-05 0.15020506896844393 6.9379048609507536e-08 -3.7992105676988248e-08 0.68750000000000000 0.12500000000000000 0.68749627223990439 0.12498108381072508 
0.75000000000000000 0.12500000000000000 0.0000000000000000 -3.7901716024450805e-06 -2.0388823678136228e-05 0.11039327990008076 5.7788900312065152e-08 -4.1987703551887433e-08 0.75000000000000000 0.12500000000000000 0.74999620982839754 0.12497961117632185 
0.81250000000000000 0.12500000000000000 0.0000000000000000 -3.8207047861739584e-06 -2.1793745754477173e-05 0.077247631303360334 4.8684052622212229e-08 -4.1631627595318931e-08 0.81250000000000000 0.12500000000000000 0.81249617929521378 0.12497820625424551 
0.87500000000000000 0.12500000000000000 0.0000000000000000 -3.8285254431189471e-06 -2.3131891448506134e-05 0.049872225362543661 3.8143876873832852e-08 -3.6977342870435988e-08 0.87500000000000000 0.12500000000000000 0.87499617147455677 0.12497686810855148 
0.93750000000000000 0.12500000000000000 0.0000000000000000 -3.8246891114272773e-06 -2.4410102398306727e-05 0.028001474679368945 3.8986368680300753e-08 -2.7201162015111056e-08 0.93750000000000000 0.12500000000000000 0.93749617531088869 0.12497558989760170 
1.0000000000000000 0.12500000000000000 0.0000000000000000 -3.8232655812793327e-06 -2.5644020206570640e-05 0.014773992943502753 0.0000000000000000 -1.7539765646852947e-08 1.0000000000000000 0.12500000000000000 0.99999617673441887 0.12497435597979344 
0.062500000000000000 0.18750000000000000 0.0000000000000000 -8.6555002928858213e-08 -1.3809848588330450e-06 1.0088203183648445 2.7979808497347152e-08 4.1738197815849238e-07 0.062500000000000000 0.18750000000000000 0.062499913444997064 0.18749861901514117 
0.0000000000000000 0.18750000000000000 0.0000000000000000 0.0000000000000000 0.0000000000000000 0.95606088225622532 0.0000000000000000 4.7569205450822462e-07 0.0000000000000000 0.18750000000000000 0.0000000000000000 0.18750000000000000 
0.12500000000000000 0.18750000000000000 0.0000000000000000 -3.1388459378349863e-07 -3.0349578528913965e-06 0.94085589269732806 1.8859452353189359e-07 3.3037158564516784e-07 0.12500000000000000 0.18750000000000000 0.12499968611540622 0.18749696504214711 
0.18750000000000000 0.18750000000000000 0.0000000000000000 -6.6195754351543851e-07 -4.8492478813738215e-06 0.80989857740142368 2.3299294185516274e-07 1.7997380536473488e-07 0.18750000000000000 0.18750000000000000 0.18749933804245653 0.18749515075211862 
0.25000000000000000 0.18750000000000000 0.0000000000000000 -1.0656262235185283e-06 -6.7138444289620513e-06 0.66908680091913209 2.0507737398115268e-07 9.7711506999265576e-08 0.25000000000000000 0.18750000000000000 0.24999893437377649 0.18749328615557104 
0.31250000000000000 0.18750000000000000 0.0000000000000000 -1.4440393746756521e-06 -8.5607338454414328e-06 0.55264251641959794 1.6329674575580087e-07 6.4018126117146012e-08 0.31250000000000000 0.18750000000000000 0.31249855596062531 0.18749143926615455 
0.37500000000000000 0.18750000000000000 0.0000000000000000 -1.7726386954313880e-06 -1.0381305639668908e-05 0.45982237453258562 1.3137997171047470e-07 4.0438536759352332e-08 0.37500000000000000 0.18750000000000000 0.37499822736130456 0.18748961869436034 
0.43750000000000000 0.18750000000000000 0.0000000000000000 -2.0450989874495779e-06 -1.2170109579556816e-05 0.38355596340647158 1.1059819861278563e-07 2.1303490527111796e-08 0.43750000000000000 0.18750000000000000 0.43749795490101256 0.18748782989042045 
0.50000000000000000 0.18750000000000000 0.0000000000000000 -2.2620511303752359e-06 -1.3919559459257172e-05 0.31896886347544667 9.4803591117303811e-08 3.8585138332622374e-09 0.50000000000000000 0.18750000000000000 0.49999773794886965 0.18748608044054074 
0.56250000000000000 0.18750000000000000 0.0000000000000000 -2.4269862611609238e-06 -1.5620818014431124e-05 0.26334808356113504 8.2059918188138076e-08 -1.1491515465996040e-08 0.56250000000000000 0.18750000000000000 0.56249757301373882 0.18748437918198557 
0.62500000000000000 0.18750000000000000 0.0000000000000000 -2.5446222956459429e-06 -1.7265007947812203e-05 0.21516388195557468 7.1118831622917928e-08 -2.4466742277653956e-08 0.62500000000000000 0.18750000000000000 0.62499745537770435 0.18748273499205217 
0.68750000000000000 0.18750000000000000 0.0000000000000000 -2.6202854080606142e-06 -1.8844122480972817e-05 0.17336485790590891 6.1763119953181359e-08 -3.4663575458050072e-08 0.68750000000000000 0.18750000000000000 0.68749737971459191 0.18748115587751904 
0.75000000000000000 0.18750000000000000 0.0000000000000000 -2.6598172924889180e-06 -2.0351741119282977e-05 0.13696604395962561 5.3893390549005566e-08 -4.1764917783299131e-08 0.75000000000000000 0.18750000000000000 0.74999734018270747 0.18747964825888072 
0.81250000000000000 0.18750000000000000 0.0000000000000000 -2.6698766889005055e-06 -2.1783722252089412e-05 0.10487177785497663 4.8913789166125679e-08 -4.5286592139308951e-08 0.81250000000000000 0.18750000000000000 0.81249733012331105 0.18747821627774794 
0.87500000000000000 0.18750000000000000 0.0000000000000000 -2.6586472503437598e-06 -2.3139024237662705e-05 0.076004373003332251 4.2482091600087495e-08 -4.5457712002462368e-08 0.87500000000000000 0.18750000000000000 0.87499734135274954 0.18747686097576233 
0.93750000000000000 0.18750000000000000 0.0000000000000000 -2.6370386439699700e-06 -2.4420820092112326e-05 0.050346895633214483 4.8292857515689512e-08 -4.0461013884771946e-08 0.93750000000000000 0.18750000000000000 0.93749736296135600 0.18747557917990790 
1.0000000000000000 0.18750000000000000 0.0000000000000000 -2.6203796528933803e-06 -2.5638308401127001e-05 0.032299054772220843 0.0000000000000000 -3.7983905650202393e-08 1.0000000000000000 0.18750000000000000 0.99999737962034707 0.18747436169159890 
0.062500000000000000 0.25000000000000000 0.0000000000000000 -4.7284282476770241e-08 -1.2669540495624631e-06 0.76878308886304458 -2.9230063462748523e-08 3.3918306474299411e-07 0.062500000000000000 0.25000000000000000 0.062499952715717517 0.24999873304595041 
0.0000000000000000 0.25000000000000000 0.0000000000000000 0.0000000000000000 0.0000000000000000 0.71239882513300301 0.0000000000000000 3.7474752447478469e-07 0.0000000000000000 0.25000000000000000 0.0000000000000000 0.25000000000000000 
0.12500000000000000 0.25000000000000000 0.0000000000000000 -1.6301122745255102e-07 -2.8104883775211871e-06 0.74564879234331205 9.1420420888967996e-08 2.9688970701907016e-07 0.12500000000000000 0.25000000000000000 0.12499983698877255 0.24999718951162245 
0.18750000000000000 0.25000000000000000 0.0000000000000000 -3.5072019550779067e-07 -4.5444246593549608e-06 0.67878312409365238 1.2806269330708083e-07 2.2348411544501431e-07 0.18750000000000000 0.25000000000000000 0.18749964927980448 0.24999545557534067 
0.25000000000000000 0.25000000000000000 0.0000000000000000 -5.8858835704634782e-07 -6.3819787772298039e-06 0.59091043343485550 1.4639298985287924e-07 1.4845069196577244e-07 0.25000000000000000 0.25000000000000000 0.24999941141164292 0.24999361802122277 
0.31250000000000000 0.25000000000000000 0.0000000000000000 -8.3864921427294325e-07 -8.2547198672833072e-06 0.50363398914430058 1.2925807070564890e-07 9.2879519526002349e-08 0.31250000000000000 0.25000000000000000 0.31249916135078570 0.24999174528013271 
0.37500000000000000 0.25000000000000000 0.0000000000000000 -1.0660571676514418e-06 -1.0119831812704664e-05 0.42854504685774969 1.0784201214987876e-07 6.0037989393379172e-08 0.37500000000000000 0.25000000000000000 0.37499893394283235 0.24998988016818727 
0.43750000000000000 0.25000000000000000 0.0000000000000000 -1.2563771400699296e-06 -1.1958017968401631e-05 0.36581075663437534 9.0728806594997330e-08 3.5865736285709084e-08 0.43750000000000000 0.25000000000000000 0.43749874362285995 0.24998804198203159 
0.50000000000000000 0.25000000000000000 0.0000000000000000 -1.4051845071918866e-06 -1.3756118977702178e-05 0.31278403710139480 7.7471272211010638e-08 1.5824512195191183e-08 0.50000000000000000 0.25000000000000000 0.49999859481549275 0.24998624388102231 
0.56250000000000000 0.25000000000000000 0.0000000000000000 -1.5127308607816374e-06 -1.5502946594693368e-05 0.26724091650729181 6.7102040246733591e-08 -1.3407930497749593e-09 0.56250000000000000 0.25000000000000000 0.56249848726913931 0.24998449705340531 
0.62500000000000000 0.25000000000000000 0.0000000000000000 -1.5814559429645061e-06 -1.7188560948481484e-05 0.22766147921905941 5.8644461493352914e-08 -1.6062550198204639e-08 0.62500000000000000 0.25000000000000000 0.62499841854405702 0.24998281143905152 
0.68750000000000000 0.25000000000000000 0.0000000000000000 -1.6149034464262568e-06 -1.8804323489982775e-05 0.19289431816595604 5.1936040207666547e-08 -2.8360391968831245e-08 0.68750000000000000 0.25000000000000000 0.68749838509655359 0.24998119567651003 
0.75000000000000000 0.25000000000000000 0.0000000000000000 -1.6174094220645899e-06 -2.0343094430962996e-05 0.16183698911020114 4.6903848604644588e-08 -3.8256525366453717e-08 0.75000000000000000 0.25000000000000000 0.74999838259057794 0.24997965690556903 
0.81250000000000000 0.25000000000000000 0.0000000000000000 -1.5943355257287053e-06 -2.1799451317319070e-05 0.13327369337172054 4.4834898811579203e-08 -4.5551489399286629e-08 0.81250000000000000 0.25000000000000000 0.81249840566447429 0.24997820054868267 
0.87500000000000000 0.25000000000000000 0.0000000000000000 -1.5528014267013546e-06 -2.3169918232838850e-05 0.10600732635227055 4.1585773138033505e-08 -5.0707973573659265e-08 0.87500000000000000 0.25000000000000000 0.87499844719857334 0.24997683008176716 
0.93750000000000000 0.25000000000000000 0.0000000000000000 -1.5029542610448418e-06 -2.4453212828159828e-05 0.079993496842373182 5.0465246649064626e-08 -5.1565724577154855e-08 0.93750000000000000 0.25000000000000000 0.93749849704573907 0.24997554678717185 
1.0000000000000000 0.25000000000000000 0.0000000000000000 -1.4596469432405708e-06 -2.5650574874447890e-05 0.059128523843178661 0.0000000000000000 -5.5163379854739988e-08 1.0000000000000000 0.25000000000000000 0.99999854035305680 0.24997434942512556 
0.062500000000000000 0.31250000000000000 0.0000000000000000 -2.3774174785525661e-08 -1.2149279199607437e-06 0.56775931933774626 -5.5915910838771670e-08 2.9406866308994151e-07 0.062500000000000000 0.31250000000000000 0.062499976225825211 0.31249878507208001 
0.0000000000000000 0.31250000000000000 0.0000000000000000 0.0000000000000000 0.0000000000000000 0.50987984725644175 0.0000000000000000 3.1560919689493462e-07 0.0000000000000000 0.31250000000000000 0.0000000000000000 0.31250000000000000 
0.12500000000000000 0.31250000000000000 0.0000000000000000 -7.0999103687906561e-08 -2.6993789048080111e-06 0.56892889236288147 4.2047169793008614e-08 2.6633374892651139e-07 0.12500000000000000 0.31250000000000000 0.12499992900089631 0.31249730062109521 
0.18750000000000000 0.31250000000000000 0.0000000000000000 -1.5245059774420403e-07 -4.3828042814095611e-06 0.53949734193999177 6.3712390678103959e-08 2.1771718998708621e-07 0.18750000000000000 0.31250000000000000 0.18749984754940227 0.31249561719571867 
0.25000000000000000 0.31250000000000000 0.0000000000000000 -2.6319143180974996e-07 -6.1925671558703621e-06 0.49253609269616327 8.3623755064711232e-08 1.6396657926948757e-07 0.25000000000000000 0.31250000000000000 0.24999973680856821 0.31249380743284411 
0.31250000000000000 0.31250000000000000 0.0000000000000000 -3.8734043381588612e-07 -8.0659901367993291e-06 0.43856611059410683 8.5991127527802379e-08 1.1367788028682639e-07 0.31250000000000000 0.31250000000000000 0.31249961265956611 0.31249193400986325 
0.37500000000000000 0.31250000000000000 0.0000000000000000 -5.0537456494300180e-07 -9.9549476901163689e-06 0.38626358841459935 7.8301691158510926e-08 7.5324476067717372e-08 0.37500000000000000 0.31250000000000000 0.37499949462543508 0.31249004505230987 
0.43750000000000000 0.31250000000000000 0.0000000000000000 -6.0193305945442743e-07 -1.1826916489964744e-05 0.34005065602804924 6.7569285813599818e-08 4.6936902640715786e-08 0.43750000000000000 0.31250000000000000 0.43749939806694055 0.31248817308351001 
0.50000000000000000 0.31250000000000000 0.0000000000000000 -6.7000290944235767e-07 -1.3661561071706431e-05 0.30028119167004536 5.8119961801516207e-08 2.4443753991853384e-08 0.50000000000000000 0.31250000000000000 0.49999932999709057 0.31248633843892831 
0.56250000000000000 0.31250000000000000 0.0000000000000000 -7.0761652634366830e-07 -1.5444236625023855e-05 0.26598137322026522 5.0438128266974977e-08 5.5579047602720358e-09 0.56250000000000000 0.31250000000000000 0.56249929238347363 0.31248455576337492 
0.62500000000000000 0.31250000000000000 0.0000000000000000 -7.1546041254325701e-07 -1.7163339602938302e-05 0.23607962398413243 4.4315946793138888e-08 -1.0702347566167399e-08 0.62500000000000000 0.31250000000000000 0.62499928453958742 0.31248283666039706 
0.68750000000000000 0.31250000000000000 0.0000000000000000 -6.9561724129814408e-07 -1.8809293363114578e-05 0.20959118082242925 3.9764264533983727e-08 -2.4775816733000476e-08 0.68750000000000000 0.31250000000000000 0.68749930438275875 0.31248119070663688 
0.75000000000000000 0.31250000000000000 0.0000000000000000 -6.5109878660338492e-07 -2.0374082820820316e-05 0.18549363476310146 3.6816303261741225e-08 -3.6986604919612400e-08 0.75000000000000000 0.31250000000000000 0.74999934890121345 0.31247962591717920 
0.81250000000000000 0.31250000000000000 0.0000000000000000 -5.8596620926285043e-07 -2.1850921738935272e-05 0.16261106663897110 3.6613653066030207e-08 -4.7403668773856618e-08 0.81250000000000000 0.31250000000000000 0.81249941403379078 0.31247814907826105 
0.87500000000000000 0.31250000000000000 0.0000000000000000 -5.0596689397782667e-07 -2.3233866691690037e-05 0.13970843192661425 3.5704296457345535e-08 -5.6664858236423683e-08 0.87500000000000000 0.31250000000000000 0.87499949403310595 0.31247676613330833 
0.93750000000000000 0.31250000000000000 0.0000000000000000 -4.1968066779530448e-07 -2.4517232664653300e-05 0.11649569265528437 4.6211626824263256e-08 -6.2404087374536759e-08 0.93750000000000000 0.31250000000000000 0.93749958031933212 0.31247548276733533 
1.0000000000000000 0.31250000000000000 0.0000000000000000 -3.3993943669323165e-07 -2.5694625099958546e-05 0.094919074832252689 0.0000000000000000 -7.1137685007416416e-08 1.0000000000000000 0.31250000000000000 0.99999966006056329 0.31247430537490006 
0.062500000000000000 0.37500000000000000 0.0000000000000000 -7.9611516255986340e-09 -1.2016360434480686e-06 0.39231839843215971 -7.6686212901965989e-08 2.6453326929282077e-07 0.062500000000000000 0.37500000000000000 0.062499992038848373 0.37499879836395650 
0.0000000000000000 0.37500000000000000 0.0000000000000000 0.0000000000000000 0.0000000000000000 0.33211092125238167 0.0000000000000000 2.8192185028425617e-07 0.0000000000000000 0.37500000000000000 0.0000000000000000 0.37500000000000000 
0.12500000000000000 0.37500000000000000 0.0000000000000000 -7.9143276308515265e-09 -2.6644059244903933e-06 0.41060263432805177 5.8676795021935734e-09 2.4070419574058124e-07 0.12500000000000000 0.37500000000000000 0.12499999208567236 0.37499733559407550 
0.18750000000000000 0.37500000000000000 0.0000000000000000 -1.1880217766174372e-08 -4.3258299186448280e-06 0.40653346630093101 1.8303896730768712e-08 2.0427719187939683e-07 0.18750000000000000 0.37500000000000000 0.18749998811978227 0.37499567417008134 
0.25000000000000000 0.37500000000000000 0.0000000000000000 -2.2903814496917690e-08 -6.1212380899761559e-06 0.38909878439525958 3.6241728281242282e-08 1.6402491206781397e-07 0.25000000000000000 0.37500000000000000 0.24999997709618552 0.37499387876191004 
0.31250000000000000 0.37500000000000000 0.0000000000000000 -3.7286752080109665e-08 -7.9928937522519071e-06 0.36385496129857042 4.3548907198172353e-08 1.2290249327796163e-07 0.31250000000000000 0.37500000000000000 0.31249996271324793 0.37499200710624775 
0.37500000000000000 0.37500000000000000 0.0000000000000000 -4.7500953599755659e-08 -9.8933369418362823e-06 0.33550397947366645 4.5074803954033033e-08 8.5934721528660594e-08 0.37500000000000000 0.37500000000000000 0.37499995249904639 0.37499010666305815 
0.43750000000000000 0.37500000000000000 0.0000000000000000 -4.5439811207635911e-08 -1.1786412084331865e-05 0.30783298872250670 4.1698351157541494e-08 5.5596987865728252e-08 0.43750000000000000 0.37500000000000000 0.43749995456018881 0.37498821358791568 
0.50000000000000000 0.37500000000000000 0.0000000000000000 -2.5332635447402196e-08 -1.3646326140447178e-05 0.28281094434810677 3.6923841939534351e-08 3.1188648213544281e-08 0.50000000000000000 0.37500000000000000 0.49999997466736451 0.37498635367385957 
0.56250000000000000 0.37500000000000000 0.0000000000000000 1.5226976099595540e-08 -1.5455021893111724e-05 0.26080824273933217 3.2350434914695535e-08 1.0821064197744295e-08 0.56250000000000000 0.37500000000000000 0.56250001522697612 0.37498454497810690 
0.62500000000000000 0.37500000000000000 0.0000000000000000 7.6415046538535562e-08 -1.7199075125747822e-05 0.24149186966149519 2.8564941488357550e-08 -6.7045633353632749e-09 0.62500000000000000 0.37500000000000000 0.62500007641504662 0.37498280092487418 
0.68750000000000000 0.37500000000000000 0.0000000000000000 1.5714200694336109e-07 -1.8867891497757510e-05 0.22428059349241783 2.5842277808020380e-08 -2.2151289082083287e-08 0.68750000000000000 0.37500000000000000 0.68750015714200696 0.37498113210850231 
0.75000000000000000 0.37500000000000000 0.0000000000000000 2.5551325681533633e-07 -2.0452618730086653e-05 0.20841707941458634 2.4396009863933007e-08 -3.6099195389216758e-08 0.75000000000000000 0.37500000000000000 0.75000025551325677 0.37497954738126987 
0.81250000000000000 0.37500000000000000 0.0000000000000000 3.6880392608052088e-07 -2.1945283440698508e-05 0.19291531923685834 2.5210588672641970e-08 -4.8875579828804793e-08 0.81250000000000000 0.37500000000000000 0.81250036880392607 0.37497805471655932 
0.87500000000000000 0.37500000000000000 0.0000000000000000 4.9297889491026668e-07 -2.3337848111610655e-05 0.17658871328214795 2.5911508589137176e-08 -6.1222437829912559e-08 0.87500000000000000 0.37500000000000000 0.87500049297889493 0.37497666215188841 