# For a description of the Tecplot format see the Tecplot User's guide.
#
Variables=x,y,z,s_u,s_v,s_p,x,y,ref_u,ref_v,u,v
Zone f=fepoint, n=289, e=512, et=quadrilateral, c=black
0.00000 0.00000 0.00000 0.0000000000000000 0.0000000000000000 5.4180672034498585 0.0000000000000000 0.0000000000000000 0.0000000000000000 0.0000000000000000 0.0000000000000000 0.0000000000000000 
0.062500000000000000 0.0000000000000000 0.0000000000000000 -7.3784753293240879e-07 -2.1253840209889542e-06 2.6301576366700039 3.7976709920729862e-06 0.0000000000000000 0.062500000000000000 0.0000000000000000 0.062499262152467067 -2.1253840209889542e-06 
0.062500000000000000 0.062500000000000000 0.0000000000000000 -7.7119253469089750e-09 -1.4351163462779520e-06 2.0071668134010530 1.7996774939478774e-06 1.5603862804485665e-06 0.062500000000000000 0.062500000000000000 0.062499992288074659 0.062498564883653719 
0.0000000000000000 0.062500000000000000 0.0000000000000000 4.3684390712965905e-22 0.0000000000000000 1.3901336827181370 -1.8988172999235946e-19 4.0909421449911493e-06 0.0000000000000000 0.062500000000000000 4.3684390712965905e-22 0.062500000000000000 
0.12500000000000000 0.0000000000000000 0.0000000000000000 -1.3859805825416482e-06 -3.9515668350463984e-06 2.1807010575642312 2.7626092793670951e-06 0.0000000000000000 0.12500000000000000 0.0000000000000000 0.12499861401941746 -3.9515668350463984e-06 
0.12500000000000000 0.062500000000000000 0.0000000000000000 -6.0605579219617076e-07 -3.3568363515093324e-06 0.43012093599827272 -1.2401366803746957e-06 -6.3967682024244314e-07 0.12500000000000000 0.062500000000000000 0.12499939394420780 0.062496643163648495 
0.18750000000000000 0.0000000000000000 0.0000000000000000 -1.9241109702112514e-06 -5.5809398936240845e-06 1.8171270622852613 2.1134176530687350e-06 0.0000000000000000 0.18750000000000000 0.0000000000000000 0.18749807588902978 -5.5809398936240845e-06 
0.18750000000000000 0.062500000000000000 0.0000000000000000 -1.1274125399259231e-06 -5.0879990861330211e-06 0.36207165189089402 -4.3290252665951893e-07 1.2147020205573470e-07 0.18750000000000000 0.062500000000000000 0.18749887258746004 0.062494912000913859 
0.25000000000000000 0.0000000000000000 0.0000000000000000 -2.3683423941414415e-06 -7.0854849491136283e-06 1.5138922039154543 1.8474197489464803e-06 0.0000000000000000 0.25000000000000000 0.0000000000000000 0.24999763165760588 -7.0854849491136283e-06 
0.25000000000000000 0.062500000000000000 0.0000000000000000 -1.5587724909201780e-06 -6.6794068087184924e-06 0.29038758086629057 -4.6986311946710419e-07 -4.0438508736002920e-08 0.25000000000000000 0.062500000000000000 0.24999844122750911 0.062493320593191286 
0.31250000000000000 0.0000000000000000 0.0000000000000000 -2.7302615291009443e-06 -8.5033263046829196e-06 1.2525245527051971 1.5998519852259703e-06 0.0000000000000000 0.31250000000000000 0.0000000000000000 0.31249726973847092 -8.5033263046829196e-06 
0.31250000000000000 0.062500000000000000 0.0000000000000000 -1.9129118191053905e-06 -8.1735606075339525e-06 0.22961756355187957 -3.9616266931834687e-07 6.5276905628084662e-09 0.31250000000000000 0.062500000000000000 0.31249808708818089 0.062491826439392460 
0.37500000000000000 0.0000000000000000 0.0000000000000000 -3.0198732312022906e-06 -9.8533712205706323e-06 1.0235316059496615 1.4220663093493958e-06 0.0000000000000000 0.37500000000000000 0.0000000000000000 0.37499698012676880 -9.8533712205706323e-06 
0.37500000000000000 0.062500000000000000 0.0000000000000000 -2.1989653947409680e-06 -9.5907244863033907e-06 0.17710292847914655 -3.6102944903697887e-07 -9.9216325289742622e-09 0.37500000000000000 0.062500000000000000 0.37499780103460528 0.062490409275513699 
0.43750000000000000 0.0000000000000000 0.0000000000000000 -3.2460721520953051e-06 -1.1144849847507072e-05 0.82166819912366673 1.2678423491785232e-06 0.0000000000000000 0.43750000000000000 0.0000000000000000 0.43749675392784787 -1.1144849847507072e-05 
0.43750000000000000 0.062500000000000000 0.0000000000000000 -2.4250505057019224e-06 -1.0941008530318207e-05 0.13235399732912520 -3.2940464175167120e-07 -1.7127345216677343e-08 0.43750000000000000 0.062500000000000000 0.43749757494949432 0.062489058991469677 
0.50000000000000000 0.0000000000000000 0.0000000000000000 -3.4172394882112676e-06 -1.2381936750435124e-05 0.64409199579294063 1.1290414101565914e-06 0.0000000000000000 0.50000000000000000 0.0000000000000000 0.49999658276051179 -1.2381936750435124e-05 
0.50000000000000000 0.062500000000000000 0.0000000000000000 -2.5986737878134401e-06 -1.2229012109235624e-05 0.094742521693316692 -3.0148285607967288e-07 -2.7949483893317001e-08 0.50000000000000000 0.062500000000000000 0.49999740132621223 0.062487770987890767 
0.56250000000000000 0.0000000000000000 0.0000000000000000 -3.5414976452670095e-06 -1.3566370987482139e-05 0.48931149716307587 9.9701547486973656e-07 0.0000000000000000 0.56250000000000000 0.0000000000000000 0.56249645850235475 -1.3566370987482139e-05 
0.56250000000000000 0.062500000000000000 0.0000000000000000 -2.7270411334812324e-06 -1.3456674811891426e-05 0.063862062880795101 -2.7367802277594075e-07 -3.7107440254693355e-08 0.56250000000000000 0.062500000000000000 0.56249727295886653 0.062486543325188111 
0.62500000000000000 0.0000000000000000 0.0000000000000000 -3.6268568819774694e-06 -1.4698891066337484e-05 0.35660516353537419 8.6755486231449128e-07 0.0000000000000000 0.62500000000000000 0.0000000000000000 0.62499637314311807 -1.4698891066337484e-05 
0.62500000000000000 0.062500000000000000 0.0000000000000000 -2.8172358375385111e-06 -1.4624817893499397e-05 0.039356924581462858 -2.4476687020445820e-07 -4.4785474326152372e-08 0.62500000000000000 0.062500000000000000 0.62499718276416250 0.062485375182106499 
0.68750000000000000 0.0000000000000000 0.0000000000000000 -3.6812416065964454e-06 -1.5780029410491530e-05 0.24568020085945375 7.3790186201821104e-07 0.0000000000000000 0.68750000000000000 0.0000000000000000 0.68749631875839345 -1.5780029410491530e-05 
0.68750000000000000 0.062500000000000000 0.0000000000000000 -2.8762993114195524e-06 -1.5734046647628874e-05 0.020911476372691102 -2.1383580700391220e-07 -4.9414821041769883e-08 0.68750000000000000 0.062500000000000000 0.68749712370068849 0.062484265953352373 
0.75000000000000000 0.0000000000000000 0.0000000000000000 -3.7123960826922569e-06 -1.6810489921955333e-05 0.15645844860328439 6.0606176398834409e-07 0.0000000000000000 0.75000000000000000 0.0000000000000000 0.74999628760391734 -1.6810489921955333e-05 
0.75000000000000000 0.062500000000000000 0.0000000000000000 -2.9112206600158325e-06 -1.6785238562876091e-05 0.0082210212177836559 -1.8064207395313212e-07 -5.4151013068135298e-08 0.75000000000000000 0.062500000000000000 0.74999708877934002 0.062483214761437124 
0.81250000000000000 0.0000000000000000 0.0000000000000000 -3.7276393408169672e-06 -1.7791185184083857e-05 0.088942824088115158 4.7132530141240147e-07 0.0000000000000000 0.81250000000000000 0.0000000000000000 0.81249627236065913 -1.7791185184083857e-05 
0.81250000000000000 0.062500000000000000 0.0000000000000000 -2.9288159007156140e-06 -1.7779748143126020e-05 0.00097721963795916844 -1.4461769289996570e-07 -4.9116221313098558e-08 0.81250000000000000 0.062500000000000000 0.81249707118409920 0.062482220251856881 
0.87500000000000000 0.0000000000000000 0.0000000000000000 -3.7334385800204955e-06 -1.8723003519821807e-05 0.043268745058026081 3.2911313506235772e-07 0.0000000000000000 0.87500000000000000 0.0000000000000000 0.87499626656141993 -1.8723003519821807e-05 
0.87500000000000000 0.062500000000000000 0.0000000000000000 -2.9354508585070682e-06 -1.8719294629212864e-05 -0.0010725427399499536 -1.0879467205302887e-07 -6.7016118466379703e-08 0.87500000000000000 0.062500000000000000 0.87499706454914150 0.062481280705370790 
0.93750000000000000 0.0000000000000000 0.0000000000000000 -3.7347737475960659e-06 -1.9605667078629398e-05 0.016523507780910079 1.8594344555530785e-07 0.0000000000000000 0.93750000000000000 0.0000000000000000 0.93749626522625240 -1.9605667078629398e-05 
0.93750000000000000 0.062500000000000000 0.0000000000000000 -2.9366071854513971e-06 -1.9605229485043232e-05 -0.00031862749780477612 -6.5965696468882465e-08 -1.8273427706437957e-08 0.93750000000000000 0.062500000000000000 0.93749706339281469 0.062480394770514959 
1.0000000000000000 0.0000000000000000 0.0000000000000000 -3.7347209918955345e-06 -2.0445330170033635e-05 0.023703526430485997 0.0000000000000000 0.0000000000000000 1.0000000000000000 0.0000000000000000 0.99999626527900809 -2.0445330170033635e-05 
1.0000000000000000 0.062500000000000000 0.0000000000000000 -2.9361256151226796e-06 -2.0445300349630585e-05 0.0099355944206734742 0.0000000000000000 -1.2142582073834083e-07 1.0000000000000000 0.062500000000000000 0.99999706387438492 0.062479554699650365 
0.062500000000000000 0.12500000000000000 0.0000000000000000 -1.1432298935619015e-08 -1.3987203108002412e-06 0.52108429698904934 -5.4575038155168508e-07 -1.4345770349601660e-06 0.062500000000000000 0.12500000000000000 0.062499988567701066 0.12499860127968920 
0.0000000000000000 0.12500000000000000 0.0000000000000000 2.2001330249764522e-22 0.0000000000000000 0.97763343340033571 2.5779539196766740e-19 2.8765144961455478e-06 0.0000000000000000 0.12500000000000000 2.2001330249764522e-22 0.12500000000000000 
0.12500000000000000 0.12500000000000000 0.0000000000000000 -4.7595768236983219e-08 -2.8248598256140948e-06 1.5931805180205723 1.5963423165397750e-06 1.5571357216341058e-06 0.12500000000000000 0.12500000000000000 0.12499995240423177 0.12499717514017439 
0.18750000000000000 0.12500000000000000 0.0000000000000000 -5.0458494850989704e-07 -4.6355734974017198e-06 0.42475265378970661 8.1716940380157066e-08 -4.9180922142519390e-07 0.18750000000000000 0.12500000000000000 0.18749949541505148 0.12499536442650259 
0.25000000000000000 0.12500000000000000 0.0000000000000000 -8.9558884231575866e-07 -6.3052896392727071e-06 0.37346054706577436 2.7278125210248620e-07 9.8337132245138946e-09 0.25000000000000000 0.12500000000000000 0.24999910441115772 0.12499369471036072 
0.31250000000000000 0.12500000000000000 0.0000000000000000 -1.2181161863769331e-06 -7.8677212594251125e-06 0.30643896906808460 1.9267152681309418e-07 -7.8407709649968574e-08 0.31250000000000000 0.12500000000000000 0.31249878188381364 0.12499213227874058 
0.37500000000000000 0.12500000000000000 0.0000000000000000 -1.4801561761312188e-06 -9.3454845180937484e-06 0.25099667327537661 1.8584325654786214e-07 -5.2113966693359851e-08 0.37500000000000000 0.12500000000000000 0.37499851984382387 0.12499065451548190 
0.43750000000000000 0.12500000000000000 0.0000000000000000 -1.6882962308808453e-06 -1.0749268409687922e-05 0.20290774656167096 1.6492638761769579e-07 -5.5478150722244954e-08 0.43750000000000000 0.12500000000000000 0.43749831170376913 0.12498925073159030 
0.50000000000000000 0.12500000000000000 0.0000000000000000 -1.8487721521954516e-06 -1.2084044427525061e-05 0.16135778881597493 1.5101084508112500e-07 -5.4338237379369089e-08 0.50000000000000000 0.12500000000000000 0.49999815122784780 0.12498791595557247 
0.56250000000000000 0.12500000000000000 0.0000000000000000 -1.9676566865760578e-06 -1.3351895446706065e-05 0.12561061725128445 1.3718141965439749e-07 -5.4713380469006726e-08 0.56250000000000000 0.12500000000000000 0.56249803234331341 0.12498664810455329 
0.62500000000000000 0.12500000000000000 0.0000000000000000 -2.0509998206707727e-06 -1.4553670145528638e-05 0.095233372795388863 1.2461578273258433e-07 -5.4492062478936333e-08 0.62500000000000000 0.12500000000000000 0.62499794900017935 0.12498544632985449 
0.68750000000000000 0.12500000000000000 0.0000000000000000 -2.1049075662969415e-06 -1.5689952409585613e-05 0.069916338347665821 1.1273122214892729e-07 -5.2872125173925744e-08 0.68750000000000000 0.12500000000000000 0.68749789509243364 0.12498431004759043 
0.75000000000000000 0.12500000000000000 0.0000000000000000 -2.1355652180602475e-06 -1.6761631553612329e-05 0.049443820878640077 1.0150980911075212e-07 -5.2763556084753143e-08 0.75000000000000000 0.12500000000000000 0.74999786443478189 0.12498323836844638 
0.81250000000000000 0.12500000000000000 0.0000000000000000 -2.1491849565721489e-06 -1.7770215899269678e-05 0.033700060293387513 9.0956237847686258e-08 -4.3179635507112392e-08 0.81250000000000000 0.12500000000000000 0.81249785081504344 0.12498222978410074 
0.87500000000000000 0.12500000000000000 0.0000000000000000 -2.1518411170889027e-06 -1.8717867270989474e-05 0.022802465553606904 7.9083907114686013e-08 -6.3226997404603687e-08 0.87500000000000000 0.12500000000000000 0.87499784815888304 0.12498128213272901 
0.93750000000000000 0.12500000000000000 0.0000000000000000 -2.1491680100380118e-06 -1.9606928361019899e-05 0.013743757119576016 7.8648613456752740e-08 1.2578097382239317e-08 0.93750000000000000 0.12500000000000000 0.93749785083199011 0.12498039307163898 
1.0000000000000000 0.12500000000000000 0.0000000000000000 -2.1455397321410316e-06 -2.0446616858891126e-05 0.034032074708849010 0.0000000000000000 -1.6827682606387859e-07 1.0000000000000000 0.12500000000000000 0.99999785446026790 0.12497955338314111 
0.062500000000000000 0.18750000000000000 0.0000000000000000 -3.2482795881204822e-09 -1.3789247491740226e-06 0.45207513582164133 2.0148408051091818e-07 -4.9271878820902098e-07 0.062500000000000000 0.18750000000000000 0.062499996751720410 0.18749862107525084 
0.0000000000000000 0.18750000000000000 0.0000000000000000 1.5801156204094973e-22 0.0000000000000000 0.52895868692569070 -3.6165400415116446e-19 2.1782975692889568e-06 0.0000000000000000 0.18750000000000000 1.5801156204094973e-22 0.18750000000000000 
0.12500000000000000 0.18750000000000000 0.0000000000000000 -2.3977387192348054e-08 -2.7839265911472522e-06 0.43639147166829506 -4.0365567131540693e-07 8.7531235051905607e-08 0.12500000000000000 0.18750000000000000 0.12499997602261281 0.18749721607340886 
0.18750000000000000 0.18750000000000000 0.0000000000000000 -5.1929717150124084e-08 -4.2397484040589510e-06 1.2179357217968563 9.7347865599929268e-07 9.3193341473038709e-07 0.18750000000000000 0.18750000000000000 0.18749994807028283 0.18749576025159595 
0.25000000000000000 0.18750000000000000 0.0000000000000000 -3.8129961651582950e-07 -5.9745842637916867e-06 0.35140443767654145 -1.6840650887162699e-07 -3.0692424487491895e-07 0.25000000000000000 0.18750000000000000 0.24999961870038348 0.18749402541573620 
0.31250000000000000 0.18750000000000000 0.0000000000000000 -6.5725384144813644e-07 -7.5964420833207740e-06 0.31403858631866649 6.3855784155869690e-08 3.3416372735090932e-08 0.31250000000000000 0.18750000000000000 0.31249934274615848 0.18749240355791666 
0.37500000000000000 0.18750000000000000 0.0000000000000000 -8.8144427401802817e-07 -9.1273647179309077e-06 0.25679095972262500 6.0311142426788366e-09 -4.5911412641472966e-08 0.37500000000000000 0.18750000000000000 0.37499911855572599 0.18749087263528208 
0.43750000000000000 0.18750000000000000 0.0000000000000000 -1.0589530674932032e-06 -1.0578781546167951e-05 0.21087785305920814 1.6665119496465342e-08 -2.9346895613034859e-08 0.43750000000000000 0.18750000000000000 0.43749894104693249 0.18748942121845383 
0.50000000000000000 0.18750000000000000 0.0000000000000000 -1.1945126671519326e-06 -1.1955698568561792e-05 0.17158992150753014 1.1458366991512947e-08 -3.7967456835761557e-08 0.50000000000000000 0.18750000000000000 0.49999880548733283 0.18748804430143143 
0.56250000000000000 0.18750000000000000 0.0000000000000000 -1.2930008257575256e-06 -1.3260190127886461e-05 0.13797980696476361 1.0601149626545422e-08 -4.0878982671039127e-08 0.56250000000000000 0.18750000000000000 0.56249870699917437 0.18748673980987210 
0.62500000000000000 0.18750000000000000 0.0000000000000000 -1.3594536845546941e-06 -1.4493006326513125e-05 0.10920114686564179 9.5458216410149823e-09 -4.4651716015491535e-08 0.62500000000000000 0.18750000000000000 0.62499864054631538 0.18748550699367347 
0.68750000000000000 0.18750000000000000 0.0000000000000000 -1.3991048516529495e-06 -1.5654587921655973e-05 0.084765324094781727 9.4624794807115242e-09 -4.6304250015587526e-08 0.68750000000000000 0.18750000000000000 0.68749860089514836 0.18748434541207834 
0.75000000000000000 0.18750000000000000 0.0000000000000000 -1.4174105029763340e-06 -1.6745677812660481e-05 0.064352969357240455 1.0173367307163387e-08 -4.9357774361122047e-08 0.75000000000000000 0.18750000000000000 0.74999858258949714 0.18748325432218735 
0.81250000000000000 0.18750000000000000 0.0000000000000000 -1.4200358976040336e-06 -1.7767708492077785e-05 0.047843517217091069 1.1603401316953762e-08 -4.1402939449210491e-08 0.81250000000000000 0.18750000000000000 0.81249857996410235 0.18748223229150793 
0.87500000000000000 0.18750000000000000 0.0000000000000000 -1.4127705797971319e-06 -1.8722939441253940e-05 0.035476658619702429 1.3426772402547419e-08 -6.7539151881646180e-08 0.87500000000000000 0.18750000000000000 0.87499858722942025 0.18748127706055875 
0.93750000000000000 0.18750000000000000 0.0000000000000000 -1.4013375669863965e-06 -1.9614242513151625e-05 0.023368390495552737 1.7529764104191822e-08 2.9250170622105550e-08 0.93750000000000000 0.18750000000000000 0.93749859866243301 0.18748038575748685 
1.0000000000000000 0.18750000000000000 0.0000000000000000 -1.3906715836643405e-06 -2.0451608546843300e-05 0.061545929987519891 0.0000000000000000 -2.5805119813198813e-07 1.0000000000000000 0.18750000000000000 0.99999860932841633 0.18747954839145317 
0.062500000000000000 0.25000000000000000 0.0000000000000000 3.1080603395400201e-09 -1.3768345969013062e-06 0.33873355662490273 -4.8094422145437274e-08 -5.4039839468822099e-07 0.062500000000000000 0.25000000000000000 0.062500003108060351 0.24999862316540308 
0.0000000000000000 0.25000000000000000 0.0000000000000000 -2.5076332522317045e-23 0.0000000000000000 0.17847311643343330 -5.6118724782077231e-20 1.9114157775292338e-06 0.0000000000000000 0.25000000000000000 -2.5076332522317045e-23 0.25000000000000000 
0.12500000000000000 0.25000000000000000 0.0000000000000000 8.2749327700780182e-09 -2.7701829942512292e-06 0.39485504596777937 9.6790799142780329e-08 3.0581737635568320e-07 0.12500000000000000 0.25000000000000000 0.12500000827493277 0.24999722981700576 
0.18750000000000000 0.25000000000000000 0.0000000000000000 6.3635983087658779e-09 -4.2197920450388912e-06 0.37431675057562236 -2.6982747063311336e-07 -1.8294125251984877e-07 0.18750000000000000 0.25000000000000000 0.18750000636359831 0.24999578020795496 
0.25000000000000000 0.25000000000000000 0.0000000000000000 6.1588295205383158e-09 -5.7000427915050150e-06 0.94042079881194862 7.7469112607640244e-07 7.5329577379602618e-07 0.25000000000000000 0.25000000000000000 0.25000000615882950 0.24999429995720848 
0.31250000000000000 0.25000000000000000 0.0000000000000000 -2.1066297537364161e-07 -7.3735884887509936e-06 0.30069656307155185 -7.6959372645183918e-08 -2.4993324789968863e-07 0.31250000000000000 0.25000000000000000 0.31249978933702455 0.24999262641151124 
0.37500000000000000 0.25000000000000000 0.0000000000000000 -3.8518974469092334e-07 -8.9490594364868180e-06 0.27468653128210613 8.8823693765155659e-08 2.1292113924569039e-08 0.37500000000000000 0.25000000000000000 0.37499961481025529 0.24999105094056348 
0.43750000000000000 0.25000000000000000 0.0000000000000000 -5.2125007713612238e-07 -1.0441196319371537e-05 0.22726031391167956 4.2067869248789734e-08 -4.5774375020942976e-08 0.43750000000000000 0.25000000000000000 0.43749947874992284 0.24998955880368065 
0.50000000000000000 0.25000000000000000 0.0000000000000000 -6.2193661222561799e-07 -1.1854792137935972e-05 0.18991009780347898 4.6216050339636142e-08 -3.4877678865255617e-08 0.50000000000000000 0.25000000000000000 0.49999937806338773 0.24998814520786206 
0.56250000000000000 0.25000000000000000 0.0000000000000000 -6.9077671654102826e-07 -1.3191592912326703e-05 0.15800107359987473 3.9731031161730724e-08 -4.2224443080992225e-08 0.56250000000000000 0.25000000000000000 0.56249930922328339 0.24998680840708767 
0.62500000000000000 0.25000000000000000 0.0000000000000000 -7.3173149471909732e-07 -1.4452068427195227e-05 0.13065580338307084 3.6972998550740990e-08 -4.4872839647578247e-08 0.62500000000000000 0.25000000000000000 0.62499926826850516 0.24998554793157277 
0.68750000000000000 0.25000000000000000 0.0000000000000000 -7.4915435956686133e-07 -1.5636364118671372e-05 0.10706091025002866 3.4264613039588224e-08 -4.6826960679403228e-08 0.68750000000000000 0.25000000000000000 0.68749925084564045 0.24998436363588136 
0.75000000000000000 0.25000000000000000 0.0000000000000000 -7.4777917625161433e-07 -1.6744919631289148e-05 0.086746375100660744 3.2520336939388454e-08 -4.9892905364386521e-08 0.75000000000000000 0.25000000000000000 0.74999925222082375 0.24998325508036870 
0.81250000000000000 0.25000000000000000 0.0000000000000000 -7.3272040220831959e-07 -1.7778887677455997e-05 0.069487384835908009 3.1138604608123855e-08 -4.1859562442137340e-08 0.81250000000000000 0.25000000000000000 0.81249926727959776 0.24998222111232257 
0.87500000000000000 0.25000000000000000 0.0000000000000000 -7.0944338656630789e-07 -1.8740339752189920e-05 0.055486038119244019 3.0517411022530325e-08 -6.9555776000201672e-08 0.87500000000000000 0.25000000000000000 0.87499929055661341 0.24998125966024778 
0.93750000000000000 0.25000000000000000 0.0000000000000000 -6.8367220997191027e-07 -1.9632247763857449e-05 0.039941370524169240 3.2050097578029478e-08 3.8090660710957181e-08 0.93750000000000000 0.25000000000000000 0.93749931632778993 0.24998036775223612 
1.0000000000000000 0.25000000000000000 0.0000000000000000 -6.6069576967752110e-07 -2.0464707875649484e-05 0.10367882752895645 0.0000000000000000 -3.0328228468231238e-07 1.0000000000000000 0.25000000000000000 0.99999933930423035 0.24997953529212436 
0.062500000000000000 0.31250000000000000 0.0000000000000000 8.7061338374468700e-09 -1.3895709153870768e-06 0.25592354780520593 -2.5638325040029472e-08 -4.6660235036443737e-07 0.062500000000000000 0.31250000000000000 0.062500008706133828 0.31249861042908461 
0.0000000000000000 0.31250000000000000 0.0000000000000000 -3.0785797882600556e-22 0.0000000000000000 -0.12604263939199786 1.8082700207558223e-19 1.7717647552326137e-06 0.0000000000000000 0.31250000000000000 -3.0785797882600556e-22 0.31250000000000000 
0.12500000000000000 0.31250000000000000 0.0000000000000000 3.5011061990356942e-08 -2.7880772405541633e-06 0.29883385489227837 -2.7135113439605647e-08 2.0924378771187718e-07 0.12500000000000000 0.31250000000000000 0.12500003501106202 0.31249721192275942 
0.18750000000000000 0.31250000000000000 0.0000000000000000 6.9394030705236305e-08 -4.2342272389579019e-06 0.34933957443590385 7.8442208218665706e-08 7.8549293164806607e-08 0.18750000000000000 0.31250000000000000 0.18750006939403072 0.31249576577276100 
0.25000000000000000 0.31250000000000000 0.0000000000000000 1.0229165801836757e-07 -5.7151943880216988e-06 0.32322701075463139 -2.1585528411185938e-07 -8.1548366101831678e-08 0.25000000000000000 0.31250000000000000 0.25000010229165803 0.31249428480561198 
0.31250000000000000 0.31250000000000000 0.0000000000000000 1.4059476593876645e-07 -7.2054042979821333e-06 0.73637582786744160 5.5388280072479685e-07 5.3434885540987627e-07 0.31250000000000000 0.31250000000000000 0.31250014059476600 0.31249279459570195 
0.37500000000000000 0.31250000000000000 0.0000000000000000 2.2532693236207249e-08 -8.8210869019926912e-06 0.26516593661680643 -6.8682636065567864e-08 -1.8371784461055394e-07 0.37500000000000000 0.31250000000000000 0.37500002253269321 0.31249117891309802 
0.43750000000000000 0.31250000000000000 0.0000000000000000 -6.2873989492258026e-08 -1.0345982355310694e-05 0.24791119904011513 6.0310766094440853e-08 1.1636189293159741e-08 0.43750000000000000 0.31250000000000000 0.43749993712601049 0.31248965401764467 
0.50000000000000000 0.31250000000000000 0.0000000000000000 -1.2037248631750649e-07 -1.1790055531048641e-05 0.20963449834763281 2.4125739610738644e-08 -4.2083425298136215e-08 0.50000000000000000 0.31250000000000000 0.49999987962751374 0.31248820994446896 
0.56250000000000000 0.31250000000000000 0.0000000000000000 -1.5186573048468429e-07 -1.3154231306558171e-05 0.17981232405122671 2.8269021293338964e-08 -3.5782690965696047e-08 0.56250000000000000 0.31250000000000000 0.56249984813426945 0.31248684576869351 
0.62500000000000000 0.31250000000000000 0.0000000000000000 -1.6014538682481181e-07 -1.4438434067376143e-05 0.15415241310332831 2.4091408152952268e-08 -4.2924794942221791e-08 0.62500000000000000 0.31250000000000000 0.62499983985461316 0.31248556156593260 
0.68750000000000000 0.31250000000000000 0.0000000000000000 -1.4862074023722346e-07 -1.5642329663998201e-05 0.13189988787746798 2.3011706351590178e-08 -4.5084380939589446e-08 0.68750000000000000 0.31250000000000000 0.68749985137925973 0.31248435767033600 
0.75000000000000000 0.31250000000000000 0.0000000000000000 -1.2126800960501470e-07 -1.6765893894620613e-05 0.11230996962055591 2.2316325911268045e-08 -4.9093287694445392e-08 0.75000000000000000 0.31250000000000000 0.74999987873199025 0.31248323410610540 
0.81250000000000000 0.31250000000000000 0.0000000000000000 -8.2606023020434441e-08 -1.7809817744226509e-05 0.095018975529983743 2.1980673296178654e-08 -4.2151821529046322e-08 0.81250000000000000 0.31250000000000000 0.81249991739397698 0.31248219018225581 
0.87500000000000000 0.31250000000000000 0.0000000000000000 -3.7700708050237598e-08 -1.8775741276638094e-05 0.080097972643329199 2.3606984022359386e-08 -7.0213948982822353e-08 0.87500000000000000 0.31250000000000000 0.87499996229929200 0.31248122425872338 
0.93750000000000000 0.31250000000000000 0.0000000000000000 7.8563079436665269e-09 -1.9666379203095818e-05 0.061827499418789629 2.3218769071023130e-08 4.0364906063471237e-08 0.93750000000000000 0.31250000000000000 0.93750000785630794 0.31248033362079691 
1.0000000000000000 0.31250000000000000 0.0000000000000000 4.8591821425504429e-08 -2.0491170662462763e-05 0.15582761210765553 0.0000000000000000 -3.2884092725963942e-07 1.0000000000000000 0.31250000000000000 1.0000000485918215 0.31247950882933756 
0.062500000000000000 0.37500000000000000 0.0000000000000000 1.4017757409271031e-08 -1.4156347365218685e-06 0.18552728344149638 -6.6124009725607661e-08 -4.6628658469790567e-07 0.062500000000000000 0.37500000000000000 0.062500014017757413 0.37499858436526345 
0.0000000000000000 0.37500000000000000 0.0000000000000000 3.3139154860631975e-22 0.0000000000000000 -0.41311658279756780 -6.6926775480847663e-19 1.7849462343059594e-06 0.0000000000000000 0.37500000000000000 3.3139154860631975e-22 0.37500000000000000 
0.12500000000000000 0.37500000000000000 0.0000000000000000 5.9608739711652380e-08 -2.8324530544228746e-06 0.22589298373128097 -8.5717245232459495e-09 2.0671019790433258e-07 0.12500000000000000 0.37500000000000000 0.12500005960873972 0.37499716754694562 
0.18750000000000000 0.37500000000000000 0.0000000000000000 1.2469479093041995e-07 -4.2883330474580680e-06 0.27333510149319562 -3.0069237613702894e-08 4.5184796937576197e-09 0.18750000000000000 0.37500000000000000 0.18750012469479094 0.37499571166695261 
0.25000000000000000 0.37500000000000000 0.0000000000000000 2.0023163410842298e-07 -5.7692410593330048e-06 0.30940421183515238 6.1530422868022733e-08 1.0205720048498967e-07 0.25000000000000000 0.37500000000000000 0.25000020023163411 0.37499423075894067 
0.31250000000000000 0.37500000000000000 0.0000000000000000 2.7630774537698841e-07 -7.2631787578096484e-06 0.28578921196935386 -1.5735384187859636e-07 -7.8202341794939793e-08 0.31250000000000000 0.37500000000000000 0.31250027630774535 0.37499273682124218 
0.37500000000000000 0.37500000000000000 0.0000000000000000 3.5866550296889776e-07 -8.7461204928297325e-06 0.58868653939061755 4.0957673186775920e-07 3.9032919970651334e-07 0.37500000000000000 0.37500000000000000 0.37500035866550302 0.37499125387950721 
0.43750000000000000 0.37500000000000000 0.0000000000000000 3.2737932000604764e-07 -1.0301471452899488e-05 0.24278133615288913 -4.9444693334733758e-08 -1.4531883847410515e-07 0.43750000000000000 0.37500000000000000 0.43750032737932004 0.37498969852854708 
0.50000000000000000 0.37500000000000000 0.0000000000000000 3.2041555319111040e-07 -1.1768849623360476e-05 0.23228111662212883 4.9249470899942573e-08 1.2975500205612373e-09 0.50000000000000000 0.37500000000000000 0.50000032041555320 0.37498823115037666 
0.56250000000000000 0.37500000000000000 0.0000000000000000 3.3278475446833217e-07 -1.3154930292045538e-05 0.20224999553574416 2.0825220013232968e-08 -4.2704902900728251e-08 0.56250000000000000 0.37500000000000000 0.56250033278475442 0.37498684506970797 
0.62500000000000000 0.37500000000000000 0.0000000000000000 3.6323558263461850e-07 -1.4458477291296307e-05 0.17893074797291444 2.4045847421524537e-08 -3.9138234798784757e-08 0.62500000000000000 0.37500000000000000 0.62500036323558261 0.37498554152270863 
0.68750000000000000 0.37500000000000000 0.0000000000000000 4.0936766268753543e-07 -1.5678471880540574e-05 0.15849069186099782 2.0996763679613868e-08 -4.4964428584245471e-08 0.68750000000000000 0.37500000000000000 0.68750040936766255 0.37498432152811945 
0.75000000000000000 0.37500000000000000 0.0000000000000000 4.6804203711758393e-07 -1.6814253411700859e-05 0.14028087122480318 2.0838000551518654e-08 -4.8786327108306681e-08 0.75000000000000000 0.37500000000000000 0.75000046804203713 0.37498318574658823 
0.81250000000000000 0.37500000000000000 0.0000000000000000 5.3540735420455643e-07 -1.7865887869654570e-05 0.12370296457926673 2.0330600761497324e-08 -4.3568913266298470e-08 0.81250000000000000 0.37500000000000000 0.81250053540735412 0.37498213411213038 
0.87500000000000000 0.37500000000000000 0.0000000000000000 6.0689955038585699e-07 -1.8834382541515310e-05 0.10866819062905343 2.3011660768861794e-08 -6.9960024828368861e-08 0.87500000000000000 0.37500000000000000 0.87500060689955028 0.37498116561745848 