# For a description of the Tecplot format see the Tecplot User's guide.
#
Variables=x,y,z,s_u,s_v,s_p,x,y,ref_u,ref_v,u,v
Zone f=fepoint, n=289, e=512, et=quadrilateral, c=black
0.00000 0.00000 0.00000 0.0000000000000000 0.0000000000000000 1.8437702407710461 0.0000000000000000 0.0000000000000000 0.0000000000000000 0.0000000000000000 0.0000000000000000 0.0000000000000000 
0.062500000000000000 0.0000000000000000 0.0000000000000000 -1.5699538237704392e-06 -3.2356033234319282e-06 1.4981685418787833 1.2616503684680286e-06 0.0000000000000000 0.062500000000000000 0.0000000000000000 0.062498430046176230 -3.2356033234319282e-06 
0.062500000000000000 0.062500000000000000 0.0000000000000000 -3.8021938201083798e-07 -2.0511376007715235e-06 1.5369152947957323 7.2892998028143489e-07 3.4796784199447096e-07 0.062500000000000000 0.062500000000000000 0.062499619780617986 0.062497948862399226 
0.0000000000000000 0.062500000000000000 0.0000000000000000 0.0000000000000000 0.0000000000000000 1.6081730659055513 0.0000000000000000 9.9159840265926256e-07 0.0000000000000000 0.062500000000000000 0.0000000000000000 0.062500000000000000 
0.12500000000000000 0.0000000000000000 0.0000000000000000 -2.6292434466524509e-06 -5.1425529356133270e-06 1.0997163166872008 4.4908577983710773e-07 0.0000000000000000 0.12500000000000000 0.0000000000000000 0.12499737075655333 -5.1425529356133270e-06 
0.12500000000000000 0.062500000000000000 0.0000000000000000 -1.3202058726681010e-06 -4.2077651361726765e-06 1.1780422251802534 4.5878309622750097e-07 -1.5007750947202867e-07 0.12500000000000000 0.062500000000000000 0.12499867979412733 0.062495792234863824 
0.18750000000000000 0.0000000000000000 0.0000000000000000 -3.4730430031774350e-06 -6.8075973821877015e-06 0.85784329462284747 3.1802548152216406e-07 0.0000000000000000 0.18750000000000000 0.0000000000000000 0.18749652695699681 -6.8075973821877015e-06 
0.18750000000000000 0.062500000000000000 0.0000000000000000 -2.1199662817560099e-06 -6.0480784066024153e-06 0.90936284215591190 3.5128484161972455e-07 -3.9172399498514266e-08 0.18750000000000000 0.062500000000000000 0.18749788003371826 0.062493951921593398 
0.25000000000000000 0.0000000000000000 0.0000000000000000 -4.1700850018594710e-06 -8.4068961463041790e-06 0.69134158164650639 2.3557733071343465e-07 0.0000000000000000 0.25000000000000000 0.0000000000000000 0.24999582991499814 -8.4068961463041790e-06 
0.25000000000000000 0.062500000000000000 0.0000000000000000 -2.7919975282060819e-06 -7.7807206167982465e-06 0.72677246703704490 2.4093858077786542e-07 -2.6271499742477233e-08 0.25000000000000000 0.062500000000000000 0.24999720800247180 0.062492219279383199 
0.31250000000000000 0.0000000000000000 0.0000000000000000 -4.7464545675266133e-06 -9.9866395242395655e-06 0.56213872692864308 1.9386047335578964e-07 0.0000000000000000 0.31250000000000000 0.0000000000000000 0.31249525354543245 -9.9866395242395655e-06 
0.31250000000000000 0.062500000000000000 0.0000000000000000 -3.3519493521927812e-06 -9.4716272845496680e-06 0.59066127020705872 1.9287647392215017e-07 -1.8214404171094792e-08 0.31250000000000000 0.062500000000000000 0.31249664805064775 0.062490528372715452 
0.37500000000000000 0.0000000000000000 0.0000000000000000 -5.2160683613399582e-06 -1.1557885908907307e-05 0.45419439114251531 1.6808731651727031e-07 0.0000000000000000 0.37500000000000000 0.0000000000000000 0.37499478393163860 -1.1557885908907307e-05 
0.37500000000000000 0.062500000000000000 0.0000000000000000 -3.8122575141620011e-06 -1.1140089515760981e-05 0.48046563167480921 1.6168199950241566e-07 -2.1732452484360876e-08 0.37500000000000000 0.062500000000000000 0.37499618774248583 0.062488859910484244 
0.43750000000000000 0.0000000000000000 0.0000000000000000 -5.5891235132976360e-06 -1.3119008295852994e-05 0.36082873462804127 1.4804989876663057e-07 0.0000000000000000 0.43750000000000000 0.0000000000000000 0.43749441087648672 -1.3119008295852994e-05 
0.43750000000000000 0.062500000000000000 0.0000000000000000 -4.1834111667184293e-06 -1.2787744361472034e-05 0.38684947652894541 1.3942746365523447e-07 -2.9337853646093605e-08 0.43750000000000000 0.062500000000000000 0.43749581658883324 0.062487212255638525 
0.50000000000000000 0.0000000000000000 0.0000000000000000 -5.8749601285063655e-06 -1.4663389293074925e-05 0.27938107640313553 1.2996991858335602e-07 0.0000000000000000 0.50000000000000000 0.0000000000000000 0.49999412503987156 -1.4663389293074925e-05 
0.50000000000000000 0.062500000000000000 0.0000000000000000 -4.4749266821270238e-06 -1.4409108024873056e-05 0.30575762068775569 1.2096938720593889e-07 -3.8130040247751755e-08 0.50000000000000000 0.062500000000000000 0.49999552507331785 0.062485590891975133 
0.56250000000000000 0.0000000000000000 0.0000000000000000 -6.0831414426430814e-06 -1.6182725099672452e-05 0.20891594866787985 1.1216180395944185e-07 0.0000000000000000 0.56250000000000000 0.0000000000000000 0.56249391685855732 -1.6182725099672452e-05 
0.56250000000000000 0.062500000000000000 0.0000000000000000 -4.6959447611318664e-06 -1.5996079118159531e-05 0.23549457080361627 1.0405159641167791e-07 -4.6230280251273344e-08 0.56250000000000000 0.062500000000000000 0.56249530405523884 0.062484003920881832 
0.62500000000000000 0.0000000000000000 0.0000000000000000 -6.2239028167759557e-06 -1.7668738680447272e-05 0.14921411566650555 9.3915115849997349e-08 0.0000000000000000 0.62500000000000000 0.0000000000000000 0.62499377609718321 -1.7668738680447272e-05 
0.62500000000000000 0.062500000000000000 0.0000000000000000 -4.8555796029408029e-06 -1.7540163218220625e-05 0.17538077308205599 8.7754952129398873e-08 -5.2377934857308727e-08 0.62500000000000000 0.062500000000000000 0.62499514442039705 0.062482459836781780 
0.68750000000000000 0.0000000000000000 0.0000000000000000 -6.3083773170400175e-06 -1.9114284920099731e-05 0.10029198821140180 7.5192500111186656e-08 0.0000000000000000 0.68750000000000000 0.0000000000000000 0.68749369162268292 -1.9114284920099731e-05 
0.68750000000000000 0.062500000000000000 0.0000000000000000 -4.9631309651804192e-06 -1.9033794816236511e-05 0.12510989316643087 7.1903174911681004e-08 -5.5547294519168360e-08 0.68750000000000000 0.062500000000000000 0.68749503686903479 0.062480966205183765 
0.75000000000000000 0.0000000000000000 0.0000000000000000 -6.3487374038514258e-06 -2.0514306948145870e-05 0.062126988923521975 5.5718005440791163e-08 0.0000000000000000 0.75000000000000000 0.0000000000000000 0.74999365126259609 -2.0514306948145870e-05 
0.75000000000000000 0.062500000000000000 0.0000000000000000 -5.0282314792001597e-06 -2.0471386043669109e-05 0.084409480159710115 5.6458025530000989e-08 -5.4818974636099397e-08 0.75000000000000000 0.062500000000000000 0.74999497176852081 0.062479528613956330 
0.81250000000000000 0.0000000000000000 0.0000000000000000 -6.3582529312090022e-06 -2.1866929694595519e-05 0.034466884943323360 3.7417517026227164e-08 0.0000000000000000 0.81250000000000000 0.0000000000000000 0.81249364174706884 -2.1866929694595519e-05 
0.81250000000000000 0.062500000000000000 0.0000000000000000 -5.0609738497462867e-06 -2.1850473175613728e-05 0.052855705680815983 4.2712530190217325e-08 -4.9265052096469093e-08 0.81250000000000000 0.062500000000000000 0.81249493902615022 0.062478149526824393 
0.87500000000000000 0.0000000000000000 0.0000000000000000 -6.3511097320982941e-06 -2.3174866698796948e-05 0.016645568728951152 1.7543900850574160e-08 0.0000000000000000 0.87500000000000000 0.0000000000000000 0.87499364889026798 -2.3174866698796948e-05 
0.87500000000000000 0.062500000000000000 0.0000000000000000 -5.0720290611438221e-06 -2.3173231582789258e-05 0.029810900583276401 2.8288562871020906e-08 -3.8435166105461743e-08 0.87500000000000000 0.062500000000000000 0.87499492797093870 0.062476826768417211 
0.93750000000000000 0.0000000000000000 0.0000000000000000 -6.3414749123071289e-06 -2.4446948508502280e-05 0.0073421006886548318 6.2348717183089577e-09 0.0000000000000000 0.93750000000000000 0.0000000000000000 0.93749365852508770 -2.4446948508502280e-05 
0.93750000000000000 0.062500000000000000 0.0000000000000000 -5.0726936497346883e-06 -2.4448540152299411e-05 0.014557639396060014 2.3259567119141579e-08 -2.3043304227601933e-08 0.93750000000000000 0.062500000000000000 0.93749492730635031 0.062475551459847699 
1.0000000000000000 0.0000000000000000 0.0000000000000000 -6.3392207518479535e-06 -2.5696517899024172e-05 0.0040272833367715061 0.0000000000000000 0.0000000000000000 1.0000000000000000 0.0000000000000000 0.99999366077924812 -2.5696517899024172e-05 
1.0000000000000000 0.062500000000000000 0.0000000000000000 -5.0743336638872760e-06 -2.5694298940462904e-05 0.0073588044912936508 0.0000000000000000 -6.3896725397092506e-09 1.0000000000000000 0.062500000000000000 0.99999492566633608 0.062474305701059531 
0.062500000000000000 0.12500000000000000 0.0000000000000000 -1.7203230358521919e-07 -1.6078230690404370e-06 1.2746319611463008 9.1095125974963787e-08 4.4472231565018393e-07 0.062500000000000000 0.12500000000000000 0.062499827967696424 0.12499839217693097 
0.0000000000000000 0.12500000000000000 0.0000000000000000 0.0000000000000000 0.0000000000000000 1.2406715176517906 0.0000000000000000 5.8090333482283972e-07 0.0000000000000000 0.12500000000000000 0.0000000000000000 0.12500000000000000 
0.12500000000000000 0.12500000000000000 0.0000000000000000 -6.1320446527429638e-07 -3.4519832124855958e-06 1.1123207327693001 3.7427404258577747e-07 2.5802865307097450e-07 0.12500000000000000 0.12500000000000000 0.12499938679553473 0.12499654801678751 
0.18750000000000000 0.12500000000000000 0.0000000000000000 -1.2205094484805194e-06 -5.3663969102365966e-06 0.89194242347222608 3.3731006516827333e-07 9.5788614557191509e-08 0.18750000000000000 0.12500000000000000 0.18749877949055152 0.12499463360308978 
0.25000000000000000 0.12500000000000000 0.0000000000000000 -1.7832667396739764e-06 -7.1999919488250047e-06 0.71595471186958648 2.3324327433634226e-07 5.3050952654790887e-08 0.25000000000000000 0.12500000000000000 0.24999821673326036 0.12499280000805117 
0.31250000000000000 0.12500000000000000 0.0000000000000000 -2.2713329538966659e-06 -8.9867550609650663e-06 0.58372004828359214 1.8440793680063174e-07 3.8040651202106582e-08 0.31250000000000000 0.12500000000000000 0.31249772866704612 0.12499101324493904 
0.37500000000000000 0.12500000000000000 0.0000000000000000 -2.6811486104606229e-06 -1.0742363333586763e-05 0.47917256363858413 1.5009112090197786e-07 2.1826269359464258e-08 0.37500000000000000 0.12500000000000000 0.37499731885138954 0.12498925763666642 
0.43750000000000000 0.12500000000000000 0.0000000000000000 -3.0163155439027787e-06 -1.2468500462716873e-05 0.39227073770765153 1.2778615103501573e-07 6.7225662627246392e-09 0.43750000000000000 0.12500000000000000 0.43749698368445605 0.12498753149953727 
0.50000000000000000 0.12500000000000000 0.0000000000000000 -3.2827686564038835e-06 -1.4160027301113764e-05 0.31794610421001168 1.1034822747369041e-07 -7.6087112244997938e-09 0.50000000000000000 0.12500000000000000 0.49999671723134359 0.12498583997269887 
0.56250000000000000 0.12500000000000000 0.0000000000000000 -3.4872724470402601e-06 -1.5809033805370220e-05 0.25374902280147604 9.5390834986102817e-08 -2.0242314614614099e-08 0.56250000000000000 0.12500000000000000 0.56249651272755308 0.12498419096619463 
0.62500000000000000 0.12500000000000000 0.0000000000000000 -3.6369207824536951e-06 -1.7407049100624602e-05 0.19844492315651507 8.1770973183743435e-08 -3.0521798492486067e-08 0.62500000000000000 0.12500000000000000 0.62499636307921758 0.12498259295089938 
0.68750000000000000 0.12500000000000000 0.0000000000000000 -3.7390129194825730e-06 -1.8946375015185621e-05 0.15126905800007193 6.9269957366499801e-08 -3.7825624868418825e-08 0.68750000000000000 0.12500000000000000 0.68749626098708039 0.12498105362498481 
0.75000000000000000 0.12500000000000000 0.0000000000000000 -3.8011296356428035e-06 -2.0421092905402436e-05 0.11153190450848001 5.7730442664555961e-08 -4.1603987869934341e-08 0.75000000000000000 0.12500000000000000 0.74999619887036439 0.12497957890709462 
0.81250000000000000 0.12500000000000000 0.0000000000000000 -3.8313950362487503e-06 -2.1828085352223361e-05 0.078447745894537263 4.8572183074039377e-08 -4.1212350390207258e-08 0.81250000000000000 0.12500000000000000 0.81249616860496376 0.12497817191464777 
0.87500000000000000 0.12500000000000000 0.0000000000000000 -3.8389743563340695e-06 -2.3168326915570331e-05 0.051211076284061206 3.7836895001114463e-08 -3.6677804496408281e-08 0.87500000000000000 0.12500000000000000 0.87499616102564370 0.12497683167308442 
0.93750000000000000 0.12500000000000000 0.0000000000000000 -3.8348887644502029e-06 -2.4448698727366124e-05 0.029635128834392649 3.7887316974195206e-08 -2.7375075601245045e-08 0.93750000000000000 0.12500000000000000 0.93749616511123557 0.12497555130127265 
1.0000000000000000 0.12500000000000000 0.0000000000000000 -3.8331593775201387e-06 -2.5684866452611214e-05 0.016639773491445169 0.0000000000000000 -1.8009760737247598e-08 1.0000000000000000 0.12500000000000000 0.99999616684062242 0.12497431513354738 
0.062500000000000000 0.18750000000000000 0.0000000000000000 -9.1607489014573064e-08 -1.3842298602447914e-06 0.99829330822705187 1.5424836590655567e-08 4.0693828439997895e-07 0.062500000000000000 0.18750000000000000 0.062499908392510982 0.18749861577013974 
0.0000000000000000 0.18750000000000000 0.0000000000000000 0.0000000000000000 0.0000000000000000 0.94410705976512910 0.0000000000000000 4.5896171827791856e-07 0.0000000000000000 0.18750000000000000 0.0000000000000000 0.18750000000000000 
0.12500000000000000 0.18750000000000000 0.0000000000000000 -3.2231913120684811e-07 -3.0420117709763651e-06 0.93537842624549794 1.8217627087316100e-07 3.2036027912378952e-07 0.12500000000000000 0.18750000000000000 0.12499967768086880 0.18749695798822905 
0.18750000000000000 0.18750000000000000 0.0000000000000000 -6.7187262753857393e-07 -4.8594298768417678e-06 0.80887456100247912 2.2692945696041148e-07 1.7666671408489417e-07 0.18750000000000000 0.18750000000000000 0.18749932812737247 0.18749514057012315 
0.25000000000000000 0.18750000000000000 0.0000000000000000 -1.0754390998600698e-06 -6.7266721094137111e-06 0.67093065076062208 2.0356809243927918e-07 9.6153963842634901e-08 0.25000000000000000 0.18750000000000000 0.24999892456090014 0.18749327332789059 
0.31250000000000000 0.18750000000000000 0.0000000000000000 -1.4535956095994315e-06 -8.5764000645210404e-06 0.55512255823408319 1.6365839445582305e-07 6.2035502940544981e-08 0.31250000000000000 0.18750000000000000 0.31249854640439040 0.18749142359993545 
0.37500000000000000 0.18750000000000000 0.0000000000000000 -1.7820115047711713e-06 -1.0399719227402070e-05 0.46202798419276897 1.3225591415891243e-07 3.8493354010066841e-08 0.37500000000000000 0.18750000000000000 0.37499821798849525 0.18748960028077263 
0.43750000000000000 0.18750000000000000 0.0000000000000000 -2.0543317369114641e-06 -1.2191095749897608e-05 0.38537570397871729 1.1125112163817392e-07 1.9641837852130841e-08 0.43750000000000000 0.18750000000000000 0.43749794566826311 0.18748780890425010 
0.50000000000000000 0.18750000000000000 0.0000000000000000 -2.2711397562375609e-06 -1.3942962032936567e-05 0.32050682443579215 9.5243712569377350e-08 2.6089606271866754e-09 0.50000000000000000 0.18750000000000000 0.49999772886024374 0.18748605703796706 
0.56250000000000000 0.18750000000000000 0.0000000000000000 -2.4359047377434357e-06 -1.5646515019597101e-05 0.26470660098524362 8.2364306034060327e-08 -1.2354055426463637e-08 0.56250000000000000 0.18750000000000000 0.56249756409526241 0.18748435348498041 
0.62500000000000000 0.18750000000000000 0.0000000000000000 -2.5533448911033855e-06 -1.7292904499893861e-05 0.21639933221133126 7.1359445849912869e-08 -2.4997288521909261e-08 0.62500000000000000 0.18750000000000000 0.62499744665510892 0.18748270709550011 
0.68750000000000000 0.18750000000000000 0.0000000000000000 -2.6287991442606397e-06 -1.8874144699717776e-05 0.17450060550221913 6.1974975178089577e-08 -3.4932824590635825e-08 0.68750000000000000 0.18750000000000000 0.68749737120085574 0.18748112585530027 
0.75000000000000000 0.18750000000000000 0.0000000000000000 -2.6681264226342331e-06 -2.0383835935056976e-05 0.13802348672047018 5.4034888167859938e-08 -4.1838250187643057e-08 0.75000000000000000 0.18750000000000000 0.74999733187357720 0.18747961616406494 
0.81250000000000000 0.18750000000000000 0.0000000000000000 -2.6779982575805695e-06 -2.1817861962552341e-05 0.10591282047380472 4.8891860593431985e-08 -4.5250617349955632e-08 0.81250000000000000 0.18750000000000000 0.81249732200174229 0.18747818213803744 
0.87500000000000000 0.18750000000000000 0.0000000000000000 -2.6665948123197522e-06 -2.3175212470073793e-05 0.077190606289476438 4.2063882782278391e-08 -4.5321368438973095e-08 0.87500000000000000 0.18750000000000000 0.87499733340518759 0.18747682478752992 
0.93750000000000000 0.18750000000000000 0.0000000000000000 -2.6447867289505677e-06 -2.4459092798718234e-05 0.051909735124688182 4.7049514841854960e-08 -4.0503537075119300e-08 0.93750000000000000 0.18750000000000000 0.93749735521327093 0.18747554090720128 
1.0000000000000000 0.18750000000000000 0.0000000000000000 -2.6278563582593752e-06 -2.5678722715732736e-05 0.034211328483587496 0.0000000000000000 -3.7516222054423741e-08 1.0000000000000000 0.18750000000000000 0.99999737214364171 0.18747432127728428 
0.062500000000000000 0.25000000000000000 0.0000000000000000 -5.0403042430986793e-08 -1.2696275064479512e-06 0.76396501987405374 -3.8332687043239496e-08 3.3580556793276173e-07 0.062500000000000000 0.25000000000000000 0.062499949596957573 0.24999873037249354 
0.0000000000000000 0.25000000000000000 0.0000000000000000 0.0000000000000000 0.0000000000000000 0.70599223539652012 0.0000000000000000 3.6661941034967560e-07 0.0000000000000000 0.25000000000000000 0.0000000000000000 0.25000000000000000 
0.12500000000000000 0.25000000000000000 0.0000000000000000 -1.6829855757804829e-07 -2.8165907213205329e-06 0.74449466396308983 8.7457387944170859e-08 2.9338069077166640e-07 0.12500000000000000 0.25000000000000000 0.12499983170144242 0.24999718340927868 
0.18750000000000000 0.25000000000000000 0.0000000000000000 -3.5726668044935611e-07 -4.5538263302986417e-06 0.68007105474236551 1.2525149288821442e-07 2.2107438776156543e-07 0.18750000000000000 0.25000000000000000 0.18749964273331954 0.24999544617366973 
0.25000000000000000 0.25000000000000000 0.0000000000000000 -5.9553411341183475e-07 -6.3943214885173626e-06 0.59362561839695005 1.4509728565661176e-07 1.4711192989678394e-07 0.25000000000000000 0.25000000000000000 0.24999940446588662 0.24999360567851148 
0.31250000000000000 0.25000000000000000 0.0000000000000000 -8.4545090668967222e-07 -8.2697941613722976e-06 0.50688188741334872 1.2938604825897970e-07 9.2297085078851594e-08 0.31250000000000000 0.25000000000000000 0.31249915454909333 0.24999173020583862 
0.37500000000000000 0.25000000000000000 0.0000000000000000 -1.0726675559326890e-06 -1.0137636796784076e-05 0.43159205112520538 1.0866550830157425e-07 5.9270229990523774e-08 0.37500000000000000 0.25000000000000000 0.37499892733244405 0.24998986236320322 
0.43750000000000000 0.25000000000000000 0.0000000000000000 -1.2628364323785196e-06 -1.1978461898812534e-05 0.36840755219941701 9.1553093586331763e-08 3.5070440203161273e-08 0.43750000000000000 0.25000000000000000 0.43749873716356763 0.24998802153810118 
0.50000000000000000 0.25000000000000000 0.0000000000000000 -1.4115111399239417e-06 -1.3779069756643692e-05 0.31494953006777615 7.8146485818969677e-08 1.5130026059567885e-08 0.50000000000000000 0.25000000000000000 0.49999858848886009 0.24998622093024334 
0.56250000000000000 0.25000000000000000 0.0000000000000000 -1.5189179739351600e-06 -1.5528275391668977e-05 0.26906053038491001 6.7625257969447821e-08 -1.8937501229576018e-09 0.56250000000000000 0.25000000000000000 0.56249848108202605 0.24998447172460833 
0.62500000000000000 0.25000000000000000 0.0000000000000000 -1.5874886421146306e-06 -1.7216155670169046e-05 0.22920764222012449 5.9063954371499807e-08 -1.6477073295084451e-08 0.62500000000000000 0.25000000000000000 0.62499841251135801 0.24998278384432984 
0.68750000000000000 0.25000000000000000 0.0000000000000000 -1.6207727073608625e-06 -1.8834090110157318e-05 0.19421621557791438 5.2287740789291930e-08 -2.8659656036929518e-08 0.68750000000000000 0.25000000000000000 0.68749837922729273 0.24998116590988984 
0.75000000000000000 0.25000000000000000 0.0000000000000000 -1.6231193618119863e-06 -2.0374956930131579e-05 0.16297944810156773 4.7152097780143528e-08 -3.8449597060077510e-08 0.75000000000000000 0.25000000000000000 0.74999837688063831 0.24997962504306989 
0.81250000000000000 0.25000000000000000 0.0000000000000000 -1.5999027032038466e-06 -2.1833353394202677e-05 0.13431222482293959 4.4938212925686154e-08 -4.5648704396057789e-08 0.81250000000000000 0.25000000000000000 0.81249840009729690 0.24997816664660580 
0.87500000000000000 0.25000000000000000 0.0000000000000000 -1.5582436351156771e-06 -2.3205826239114157e-05 0.10710213910585555 4.1243134238058316e-08 -5.0592212402374957e-08 0.87500000000000000 0.25000000000000000 0.87499844175636488 0.24997679417376092 
0.93750000000000000 0.25000000000000000 0.0000000000000000 -1.5082611267652403e-06 -2.4491118713570542e-05 0.081353908369535835 4.9606818493273856e-08 -5.1383265813326680e-08 0.93750000000000000 0.25000000000000000 0.93749849173887323 0.24997550888128642 
1.0000000000000000 0.25000000000000000 0.0000000000000000 -1.4647830575385603e-06 -2.5690497396214307e-05 0.060807412457813785 0.0000000000000000 -5.3911649610239279e-08 1.0000000000000000 0.25000000000000000 0.99999853521694249 0.24997430950260380 
0.062500000000000000 0.31250000000000000 0.0000000000000000 -2.5814051377439461e-08 -1.2171175570295043e-06 0.56531263940868215 -6.3219283154025040e-08 2.9276736775211393e-07 0.062500000000000000 0.31250000000000000 0.062499974185948624 0.31249878288244298 
0.0000000000000000 0.31250000000000000 0.0000000000000000 0.0000000000000000 0.0000000000000000 0.50604440667768980 0.0000000000000000 3.1121912415309147e-07 0.0000000000000000 0.31250000000000000 0.0000000000000000 0.31250000000000000 
0.12500000000000000 0.31250000000000000 0.0000000000000000 -7.4383972146190281e-08 -2.7045130240781247e-06 0.56953104433765622 3.8350290417111339e-08 2.6514546172417549e-07 0.12500000000000000 0.31250000000000000 0.12499992561602787 0.31249729548697586 
0.18750000000000000 0.31250000000000000 0.0000000000000000 -1.5660673034756509e-07 -4.3910971756157411e-06 0.54201132437179200 6.1586923724675828e-08 2.1701803805673895e-07 0.18750000000000000 0.31250000000000000 0.18749984339326967 0.31249560890282441 
0.25000000000000000 0.31250000000000000 0.0000000000000000 -2.6766466565223145e-07 -6.2039466372220341e-06 0.49589517585659554 8.3174081712720061e-08 1.6341133329618810e-07 0.25000000000000000 0.31250000000000000 0.24999973233533437 0.31249379605336275 
0.31250000000000000 0.31250000000000000 0.0000000000000000 -3.9178991645672191e-07 -8.0802831135083811e-06 0.44212066943271749 8.6124053175447051e-08 1.1339587437484820e-07 0.31250000000000000 0.31250000000000000 0.31249960821008355 0.31249191971688650 
0.37500000000000000 0.31250000000000000 0.0000000000000000 -5.0962229837213678e-07 -9.9720271383357854e-06 0.38963572660115053 7.8921622854503171e-08 7.5071837802093194e-08 0.37500000000000000 0.31250000000000000 0.37499949037770164 0.31249002797286168 
0.43750000000000000 0.31250000000000000 0.0000000000000000 -6.0597190757175926e-07 -1.1846705724854802e-05 0.34302233116288799 6.8337086371285291e-08 4.6596354153543114e-08 0.43750000000000000 0.31250000000000000 0.43749939402809240 0.31248815329427515 
0.50000000000000000 0.31250000000000000 0.0000000000000000 -6.7385762844263586e-07 -1.3683950118309111e-05 0.30281060580990832 5.8835785706800686e-08 2.4058552039543899e-08 0.50000000000000000 0.31250000000000000 0.49999932614237158 0.31248631604988170 
0.56250000000000000 0.31250000000000000 0.0000000000000000 -7.1130098096194115e-07 -1.5469098458789635e-05 0.26811406940372190 5.1041726029859956e-08 5.1900751426890663e-09 0.56250000000000000 0.31250000000000000 0.56249928869901911 0.31248453090154121 
0.62500000000000000 0.31250000000000000 0.0000000000000000 -7.1897807646574022e-07 -1.7190549977295872e-05 0.23787631141673471 4.4821328437205082e-08 -1.1025809654713907e-08 0.62500000000000000 0.31250000000000000 0.62499928102192348 0.31248280945002271 
0.68750000000000000 0.31250000000000000 0.0000000000000000 -6.9897147031355334e-07 -1.8838738980585974e-05 0.21110050524276439 4.0204581790636174e-08 -2.5046062316324217e-08 0.68750000000000000 0.31250000000000000 0.68749930102852985 0.31248116126101944 
0.75000000000000000 0.31250000000000000 0.0000000000000000 -6.5430198449982750e-07 -2.0405663120120489e-05 0.18675445943410929 3.7169187760996307e-08 -3.7179712244650935e-08 0.75000000000000000 0.31250000000000000 0.74999934569801552 0.31247959433687988 
0.81250000000000000 0.31250000000000000 0.0000000000000000 -5.8904444738121424e-07 -2.1884549119810413e-05 0.16367246051164291 3.6911693005565560e-08 -4.7484156502056380e-08 0.81250000000000000 0.31250000000000000 0.81249941095555267 0.31247811545088017 
0.87500000000000000 0.31250000000000000 0.0000000000000000 -5.0895757896014793e-07 -2.3269467297485111e-05 0.14066899788683299 3.5607746112863390e-08 -5.6440327822696178e-08 0.87500000000000000 0.31250000000000000 0.87499949104242092 0.31247673053270253 
0.93750000000000000 0.31250000000000000 0.0000000000000000 -4.2261605880864219e-07 -2.4554751630656667e-05 0.11746758341770651 4.6117643775846523e-08 -6.1917274173543987e-08 0.93750000000000000 0.31250000000000000 0.93749957738394130 0.31247544524836934 
1.0000000000000000 0.31250000000000000 0.0000000000000000 -3.4286225660786554e-07 -2.5734040103053837e-05 0.096049278792194312 0.0000000000000000 -6.9200033507566360e-08 1.0000000000000000 0.31250000000000000 0.99999965713774353 0.31247426595989697 
0.062500000000000000 0.37500000000000000 0.0000000000000000 -9.3292658883812151e-09 -1.2035004089379552e-06 0.39093265650171344 -8.2367027111951250e-08 2.6386999949847814e-07 0.062500000000000000 0.37500000000000000 0.062499990670734105 0.37499879649959106 
0.0000000000000000 0.37500000000000000 0.0000000000000000 0.0000000000000000 0.0000000000000000 0.32967593479577845 0.0000000000000000 2.7902827501175207e-07 0.0000000000000000 0.37500000000000000 0.0000000000000000 0.37500000000000000 
0.12500000000000000 0.37500000000000000 0.0000000000000000 -1.0084672280280954e-08 -2.6688130094656736e-06 0.41175322152510208 2.6013089506652894e-09 2.4049882110966279e-07 0.12500000000000000 0.37500000000000000 0.12499998991532772 0.37499733118699052 
0.18750000000000000 0.37500000000000000 0.0000000000000000 -1.4397230717913603e-08 -4.3331652634786703e-06 0.40936305836597731 1.6416830683942440e-08 2.0449206221490839e-07 0.18750000000000000 0.37500000000000000 0.18749998560276929 0.37499566683473651 
0.25000000000000000 0.37500000000000000 0.0000000000000000 -2.5472299412986492e-08 -6.1316435715094247e-06 0.39265196306349887 3.5841315347552608e-08 1.6416235726773863e-07 0.25000000000000000 0.37500000000000000 0.24999997452770059 0.37499386835642851 
0.31250000000000000 0.37500000000000000 0.0000000000000000 -3.9722658512764359e-08 -8.0063300588945281e-06 0.36750133062274259 4.3748662418143103e-08 1.2297929720592692e-07 0.31250000000000000 0.37500000000000000 0.31249996027734150 0.37499199366994113 
0.37500000000000000 0.37500000000000000 0.0000000000000000 -4.9689455008523711e-08 -9.9096882254115302e-06 0.33893940885615087 4.5587273463197453e-08 8.5972711960859374e-08 0.37500000000000000 0.37500000000000000 0.37499995031054500 0.37499009031177460 
0.43750000000000000 0.37500000000000000 0.0000000000000000 -4.7340010709168259e-08 -1.1805558239607939e-05 0.31092026592636751 4.2337173463643484e-08 5.5568382283127500e-08 0.43750000000000000 0.37500000000000000 0.43749995265998937 0.37498819444176040 
0.50000000000000000 0.37500000000000000 0.0000000000000000 -2.6962610425693857e-08 -1.3668152825447654e-05 0.28550128800265118 3.7573165731905246e-08 3.1072933349545131e-08 0.50000000000000000 0.37500000000000000 0.49999997303738958 0.37498633184717450 
0.56250000000000000 0.37500000000000000 0.0000000000000000 1.3838033181983586e-08 -1.5479402754590822e-05 0.26311460092041705 3.2942089410425669e-08 1.0658255304708968e-08 0.56250000000000000 0.37500000000000000 0.56250001383803305 0.37498452059724535 
0.62500000000000000 0.37500000000000000 0.0000000000000000 7.5242919944785663e-08 -1.7225879480160690e-05 0.24345100984270651 2.9088710228300923e-08 -6.8794894084879331e-09 0.62500000000000000 0.37500000000000000 0.62500007524291989 0.37498277412051984 
0.68750000000000000 0.37500000000000000 0.0000000000000000 1.5616509759784038e-07 -1.8896992453023507e-05 0.22592444645563062 2.6329178248580583e-08 -2.2311008228531501e-08 0.68750000000000000 0.37500000000000000 0.68750015616509763 0.37498110300754700 
0.75000000000000000 0.37500000000000000 0.0000000000000000 2.5470387656848627e-07 -2.0483895890277827e-05 0.20976066978553917 2.4841587991763421e-08 -3.6200881783897076e-08 0.75000000000000000 0.37500000000000000 0.75000025470387655 0.37497951610410979 
0.81250000000000000 0.37500000000000000 0.0000000000000000 3.6811845067013242e-07 -2.1978622454356449e-05 0.19395754981764660 2.5734096443843585e-08 -4.8855393705233861e-08 0.81250000000000000 0.37500000000000000 0.81250036811845072 0.37497802137754560 
0.87500000000000000 0.37500000000000000 0.0000000000000000 4.9234916746433476e-07 -2.3373140236833439e-05 0.17732936289006829 2.6163665374777233e-08 -6.0850462623398978e-08 0.87500000000000000 0.37500000000000000 0.87500049234916755 0.37497662685976318 