# For a description of the Tecplot format see the Tecplot User's guide.
#
Variables=x,y,z,s_u,s_v,s_p,x,y,ref_u,ref_v,u,v
Zone f=fepoint, n=1089, e=2048, et=quadrilateral, c=black
0.00000 0.00000 0.00000 0.0000000000000000 0.0000000000000000 2.5347250535999750 0.0000000000000000 0.0000000000000000 0.0000000000000000 0.0000000000000000 0.0000000000000000 0.0000000000000000 
0.031250000000000000 0.0000000000000000 0.0000000000000000 -1.0743451133405973e-06 -2.2678177208033489e-06 2.1115976491985955 3.0268627490990339e-06 0.0000000000000000 0.031250000000000000 0.0000000000000000 0.031248925654886659 -2.2678177208033489e-06 
0.031250000000000000 0.031250000000000000 0.0000000000000000 -2.8192596837195665e-07 -1.4438209464473293e-06 2.2047548382411688 1.8043257956240410e-06 4.9623809038736363e-07 0.031250000000000000 0.031250000000000000 0.031249718074031627 0.031248556179053557 
0.0000000000000000 0.031250000000000000 0.0000000000000000 0.0000000000000000 0.0000000000000000 2.3257509169305881 0.0000000000000000 1.9314997510300223e-06 0.0000000000000000 0.031250000000000000 0.0000000000000000 0.031250000000000000 
0.062500000000000000 0.0000000000000000 0.0000000000000000 -1.7901618766992945e-06 -3.5238341275918218e-06 1.6240326345506153 1.1064212830954383e-06 0.0000000000000000 0.062500000000000000 0.0000000000000000 0.062498209838123299 -3.5238341275918218e-06 
0.062500000000000000 0.031250000000000000 0.0000000000000000 -9.5809035528376307e-07 -2.8571233955623909e-06 1.7586516943228070 1.1614975721013637e-06 -6.2155938492859444e-07 0.062500000000000000 0.031250000000000000 0.062499041909644719 0.031247142876604437 
0.093750000000000000 0.0000000000000000 0.0000000000000000 -2.3750763801739740e-06 -4.5420616984389518e-06 1.3327411892417216 7.2535126572286523e-07 0.0000000000000000 0.093750000000000000 0.0000000000000000 0.093747624923619821 -4.5420616984389518e-06 
0.093750000000000000 0.031250000000000000 0.0000000000000000 -1.5528097027762577e-06 -3.9761873504092764e-06 1.4252101852904273 8.5836066517855703e-07 -3.2125537954374917e-07 0.093750000000000000 0.031250000000000000 0.093748447190297221 0.031246023812649595 
0.12500000000000000 0.0000000000000000 0.0000000000000000 -2.8873315358410470e-06 -5.4640286465165686e-06 1.1458079092155353 4.8291124895832006e-07 0.0000000000000000 0.12500000000000000 0.0000000000000000 0.12499711266846415 -5.4640286465165686e-06 
0.12500000000000000 0.031250000000000000 0.0000000000000000 -2.0803944498008795e-06 -4.9661605607507508e-06 1.2070970212961758 5.5265126977458618e-07 -2.2253554207260701e-07 0.12500000000000000 0.031250000000000000 0.12499791960555019 0.031245033839439249 
0.15625000000000000 0.0000000000000000 0.0000000000000000 -3.3491207927279014e-06 -6.3388059525845465e-06 1.0131781387858665 3.6003906538248539e-07 0.0000000000000000 0.15625000000000000 0.0000000000000000 0.15624665087920728 -6.3388059525845465e-06 
0.15625000000000000 0.031250000000000000 0.0000000000000000 -2.5542003551805732e-06 -5.8918550993421820e-06 1.0556228358627646 4.0974108545632564e-07 -1.3976547823436880e-07 0.15625000000000000 0.031250000000000000 0.15624744579964481 0.031244108144900657 
0.18750000000000000 0.0000000000000000 0.0000000000000000 -3.7705604355257196e-06 -7.1888898262279569e-06 0.91005901061472283 2.9355290282233952e-07 0.0000000000000000 0.18750000000000000 0.0000000000000000 0.18749622943956448 -7.1888898262279569e-06 
0.18750000000000000 0.031250000000000000 0.0000000000000000 -2.9831665691895984e-06 -6.7834353988633680e-06 0.94138550840384549 3.2407512758474065e-07 -9.2220585103586047e-08 0.18750000000000000 0.031250000000000000 0.18749701683343081 0.031243216564601137 
0.21875000000000000 0.0000000000000000 0.0000000000000000 -4.1568831892654871e-06 -8.0260292128354595e-06 0.82393258026812033 2.5421233930339091e-07 0.0000000000000000 0.21875000000000000 0.0000000000000000 0.21874584311681070 -8.0260292128354595e-06 
0.21875000000000000 0.031250000000000000 0.0000000000000000 -3.3733188654951112e-06 -7.6565029940052092e-06 0.84864917977292242 2.7275651257046072e-07 -6.3699318110622750e-08 0.21875000000000000 0.031250000000000000 0.21874662668113451 0.031242343497005994 
0.25000000000000000 0.0000000000000000 0.0000000000000000 -4.5111209533261610e-06 -8.8566984437818273e-06 0.74829612505568532 2.2920586509605685e-07 0.0000000000000000 0.25000000000000000 0.0000000000000000 0.24999548887904668 -8.8566984437818273e-06 
0.25000000000000000 0.031250000000000000 0.0000000000000000 -3.7288346578283584e-06 -8.5195535619655321e-06 0.76905092402213870 2.3992791905612776e-07 -4.7255055996190542e-08 0.25000000000000000 0.031250000000000000 0.24999627116534215 0.031241480446438038 
0.28125000000000000 0.0000000000000000 0.0000000000000000 -4.8352466007520504e-06 -9.6844427536480526e-06 0.67965639114034826 2.1186204661984360e-07 0.0000000000000000 0.28125000000000000 0.0000000000000000 0.28124516475339922 -9.6844427536480526e-06 
0.28125000000000000 0.031250000000000000 0.0000000000000000 -4.0527209466230560e-06 -9.3772327247318639e-06 0.69804428467278090 2.1738183677472489e-07 -3.8412873236478798e-08 0.28125000000000000 0.031250000000000000 0.28124594727905339 0.031240622767275267 
0.31250000000000000 0.0000000000000000 0.0000000000000000 -5.1307069311191874e-06 -1.0511046787369280e-05 0.61607905769377647 1.9872889224871967e-07 0.0000000000000000 0.31250000000000000 0.0000000000000000 0.31249486929306886 -1.0511046787369280e-05 
0.31250000000000000 0.031250000000000000 0.0000000000000000 -4.3472442283900870e-06 -1.0231939232688461e-05 0.63308607861992972 2.0076669920278973e-07 -3.4480145201289934e-08 0.31250000000000000 0.031250000000000000 0.31249565275577162 0.031239768060767312 
0.34375000000000000 0.0000000000000000 0.0000000000000000 -5.3986896372831988e-06 -1.1337181904824059e-05 0.55647074273268249 1.8792919649723914e-07 0.0000000000000000 0.34375000000000000 0.0000000000000000 0.34374460131036272 -1.1337181904824059e-05 
0.34375000000000000 0.031250000000000000 0.0000000000000000 -4.6142058506077060e-06 -1.1084689638467702e-05 0.57271722996908492 1.8762201696071828e-07 -3.3768880682724700e-08 0.34375000000000000 0.031250000000000000 0.34374538579414932 0.031238915310361531 
0.37500000000000000 0.0000000000000000 0.0000000000000000 -5.6402648050638978e-06 -1.2162794183030840e-05 0.50021093918648574 1.7839566293316140e-07 0.0000000000000000 0.37500000000000000 0.0000000000000000 0.37499435973519496 -1.2162794183030840e-05 
0.37500000000000000 0.031250000000000000 0.0000000000000000 -4.8551198677983824e-06 -1.1935620289268681e-05 0.51608791171883250 1.7651984394244616e-07 -3.5175132261201394e-08 0.37500000000000000 0.031250000000000000 0.37499514488013214 0.031238064379710728 
0.40625000000000000 0.0000000000000000 0.0000000000000000 -5.8564633172989243e-06 -1.2987351315415410e-05 0.44695574954018308 1.6949926766090481e-07 0.0000000000000000 0.40625000000000000 0.0000000000000000 0.40624414353668276 -1.2987351315415410e-05 
0.40625000000000000 0.031250000000000000 0.0000000000000000 -5.0713287658900979e-06 -1.2784296738890707e-05 0.46270416752198235 1.6659950428303055e-07 -3.7947858036799490e-08 0.40625000000000000 0.031250000000000000 0.40624492867123413 0.031237215703261104 
0.43750000000000000 0.0000000000000000 0.0000000000000000 -6.0483218181390560e-06 -1.3810007285591221e-05 0.39652885687755002 1.6085664774941839e-07 0.0000000000000000 0.43750000000000000 0.0000000000000000 0.43749395167818178 -1.3810007285591221e-05 
0.43750000000000000 0.031250000000000000 0.0000000000000000 -5.2640792741688621e-06 -1.3629914115646465e-05 0.41228744467410472 1.5732596845990999e-07 -4.1556293299221339e-08 0.43750000000000000 0.031250000000000000 0.43749473592072580 0.031236370085884358 
0.46875000000000000 0.0000000000000000 0.0000000000000000 -6.2169092360864581e-06 -1.4629716542345118e-05 0.34885855523415943 1.5222738801965774e-07 0.0000000000000000 0.46875000000000000 0.0000000000000000 0.46874378309076392 -1.4629716542345118e-05 
0.46875000000000000 0.031250000000000000 0.0000000000000000 -5.4345723677518204e-06 -1.4471432366927481e-05 0.36469361554003382 1.4835809283760851e-07 -4.5611399259466609e-08 0.46875000000000000 0.031250000000000000 0.46874456542763226 0.031235528567633068 
0.50000000000000000 0.0000000000000000 0.0000000000000000 -6.3633429108327051e-06 -1.5445315949150325e-05 0.30394010120023279 1.4345668172518376e-07 0.0000000000000000 0.50000000000000000 0.0000000000000000 0.49999363665708918 -1.5445315949150325e-05 
0.50000000000000000 0.031250000000000000 0.0000000000000000 -5.5839965091204991e-06 -1.5307670947374070e-05 0.31986452611385313 1.3947390194328200e-07 -4.9816988150140843e-08 0.50000000000000000 0.031250000000000000 0.49999441600349087 0.031234692329052627 
0.53125000000000000 0.0000000000000000 0.0000000000000000 -6.4887988856572600e-06 -1.6255585684607864e-05 0.26181250140219464 1.3444219246120448e-07 0.0000000000000000 0.53125000000000000 0.0000000000000000 0.53124351120111435 -1.6255585684607864e-05 
0.53125000000000000 0.031250000000000000 0.0000000000000000 -5.7135499904043488e-06 -1.6137377527366792e-05 0.27779798302112785 1.3052699890653292e-07 -5.3937667400816275e-08 0.53125000000000000 0.031250000000000000 0.53124428645000965 0.031233862622472634 
0.56250000000000000 0.0000000000000000 0.0000000000000000 -6.5945190788443835e-06 -1.7059296349765457e-05 0.22254372348201756 1.2511459039620918e-07 0.0000000000000000 0.56250000000000000 0.0000000000000000 0.56249340548092119 -1.7059296349765457e-05 
0.56250000000000000 0.031250000000000000 0.0000000000000000 -5.8244561974815409e-06 -1.6959279911583944e-05 0.23852847919236106 1.2142072092389656e-07 -5.7776616646785999e-08 0.56250000000000000 0.031250000000000000 0.56249417554380254 0.031233040720088420 
0.59375000000000000 0.0000000000000000 0.0000000000000000 -6.6818169971817325e-06 -1.7855247309154286e-05 0.18622078230439018 1.1542645089963398e-07 0.0000000000000000 0.59375000000000000 0.0000000000000000 0.59374331818300286 -1.7855247309154286e-05 
0.59375000000000000 0.031250000000000000 0.0000000000000000 -5.9179742798634090e-06 -1.7772127364067882e-05 0.20211420159767937 1.1209312445773810e-07 -6.1159294361003450e-08 0.59375000000000000 0.031250000000000000 0.59374408202572015 0.031232227872635934 
0.62500000000000000 0.0000000000000000 0.0000000000000000 -6.7520829989630829e-06 -1.8642300020250575e-05 0.15294240838959974 1.0534682928213176e-07 0.0000000000000000 0.62500000000000000 0.0000000000000000 0.62499324791700106 -1.8642300020250575e-05 
0.62500000000000000 0.031250000000000000 0.0000000000000000 -5.9954068027169127e-06 -1.8574725860705708e-05 0.16862753788853668 1.0250917069465646e-07 -6.3920870064338213e-08 0.62500000000000000 0.031250000000000000 0.62499400459319732 0.031231425274139298 
0.65625000000000000 0.0000000000000000 0.0000000000000000 -6.8067896428546860e-06 -1.9419409412967427e-05 0.12281262435945024 9.4860464021964034e-08 0.0000000000000000 0.65625000000000000 0.0000000000000000 0.65624319321035718 -1.9419409412967427e-05 
0.65625000000000000 0.031250000000000000 0.0000000000000000 -6.0581053072263936e-06 -1.9365970889305301e-05 0.13814716007853942 9.2658347137035064e-08 -6.5896185623688206e-08 0.65625000000000000 0.031250000000000000 0.65624394189469282 0.031230634029110693 
0.68750000000000000 0.0000000000000000 0.0000000000000000 -6.8474972447471490e-06 -2.0185656068333172e-05 0.095933820553497515 8.3970816824652178e-08 0.0000000000000000 0.68750000000000000 0.0000000000000000 0.68749315250275522 -2.0185656068333172e-05 
0.68750000000000000 0.031250000000000000 0.0000000000000000 -6.1074742021830529e-06 -2.0144881011950024e-05 0.11075019063198221 8.2556688322497864e-08 -6.6911772830929439e-08 0.68750000000000000 0.031250000000000000 0.68749389252579796 0.031229855118988046 
0.71875000000000000 0.0000000000000000 0.0000000000000000 -6.8758593051404395e-06 -2.0940281909148002e-05 0.072397996269830386 7.2708915673140725e-08 0.0000000000000000 0.71875000000000000 0.0000000000000000 0.71874312414069486 -2.0940281909148002e-05 
0.71875000000000000 0.031250000000000000 0.0000000000000000 -6.1449729796873299e-06 -2.0910635348881323e-05 0.086503163330049163 7.2253633005226470e-08 -6.6780070616648306e-08 0.71875000000000000 0.031250000000000000 0.71874385502702032 0.031229089364651120 
0.75000000000000000 0.0000000000000000 0.0000000000000000 -6.8936268480130946e-06 -2.1682732292798232e-05 0.052274837075675373 6.1142640377157591e-08 0.0000000000000000 0.75000000000000000 0.0000000000000000 0.74999310637315197 -2.1682732292798232e-05 
0.75000000000000000 0.031250000000000000 0.0000000000000000 -6.1721163389713769e-06 -2.1662618356075122e-05 0.065450637706417264 6.1840616568803907e-08 -6.5296907388031351e-08 0.75000000000000000 0.031250000000000000 0.74999382788366098 0.031228337381643923 
0.78125000000000000 0.0000000000000000 0.0000000000000000 -6.9026497626821814e-06 -2.2412707726091129e-05 0.035595437594264784 4.9407076434925132e-08 0.0000000000000000 0.78125000000000000 0.0000000000000000 0.78124309735023745 -2.2412707726091129e-05 
0.78125000000000000 0.031250000000000000 0.0000000000000000 -6.1904713745860722e-06 -2.2400475680995819e-05 0.047600634552862009 5.1470147517509841e-08 -6.2244263009927437e-08 0.78125000000000000 0.031250000000000000 0.78124380952862538 0.031227599524319003 
0.81250000000000000 0.0000000000000000 0.0000000000000000 -6.9048716749710302e-06 -2.3130228745390570e-05 0.022330891324226693 3.7688892273409529e-08 0.0000000000000000 0.81250000000000000 0.0000000000000000 0.81249309512832502 -2.3130228745390570e-05 
0.81250000000000000 0.031250000000000000 0.0000000000000000 -6.2016504872039070e-06 -2.3124185356594786e-05 0.032906799822045335 4.1347630578479307e-08 -5.7402997643159631e-08 0.81250000000000000 0.031250000000000000 0.81249379834951274 0.031226875814643406 
0.84375000000000000 0.0000000000000000 0.0000000000000000 -6.9023122384116111e-06 -2.3835717433343112e-05 0.012366396140459030 2.6379794688557569e-08 0.0000000000000000 0.84375000000000000 0.0000000000000000 0.84374309768776146 -2.3835717433343112e-05 
0.84375000000000000 0.031250000000000000 0.0000000000000000 -6.2072980312071512e-06 -2.3834148823890690e-05 0.021249115181936843 3.1808285325211813e-08 -5.0584539626238670e-08 0.84375000000000000 0.031250000000000000 0.84374379270196875 0.031226165851176105 
0.87500000000000000 0.0000000000000000 0.0000000000000000 -6.8970260495890430e-06 -2.4530097226064243e-05 0.0054727688222842409 1.5723554121614359e-08 0.0000000000000000 0.87500000000000000 0.0000000000000000 0.87499310297395050 -2.4530097226064243e-05 
0.87500000000000000 0.031250000000000000 0.0000000000000000 -6.2090676120390146e-06 -2.4531305344336434e-05 0.012417873185777487 2.3059853641559525e-08 -4.1688511303015472e-08 0.87500000000000000 0.031250000000000000 0.87499379093238794 0.031225468694655662 
0.90625000000000000 0.0000000000000000 0.0000000000000000 -6.8910191252626374e-06 -2.5214905853882308e-05 0.0012806319260991806 6.9537640261571961e-09 0.0000000000000000 0.90625000000000000 0.0000000000000000 0.90624310898087479 -2.5214905853882308e-05 
0.90625000000000000 0.031250000000000000 0.0000000000000000 -6.2085847542825741e-06 -2.5217269370166674e-05 0.0061117080633051437 1.5917643124963779e-08 -3.0886013470297141e-08 0.90625000000000000 0.031250000000000000 0.90624379141524580 0.031224782730629837 
0.93750000000000000 0.0000000000000000 0.0000000000000000 -6.8860865218065606e-06 -2.5892391475694484e-05 -0.00074891012898787278 -5.1457760862591466e-10 0.0000000000000000 0.93750000000000000 0.0000000000000000 0.93749311391347823 -2.5892391475694484e-05 
0.93750000000000000 0.031250000000000000 0.0000000000000000 -6.2073830349511800e-06 -2.5894476916133033e-05 0.0019559495286781345 9.2200673402282060e-09 -1.8633156371176904e-08 0.93750000000000000 0.031250000000000000 0.93749379261696497 0.031224105523083866 
0.96875000000000000 0.0000000000000000 0.0000000000000000 -6.8834899823940725e-06 -2.6565476952157674e-05 -0.0013748055590711505 -2.7509672053142516e-09 0.0000000000000000 0.96875000000000000 0.0000000000000000 0.96874311651001765 -2.6565476952157674e-05 
0.96875000000000000 0.031250000000000000 0.0000000000000000 -6.2067815591681650e-06 -2.6566289698016037e-05 -0.00046757531528375897 7.3178140927763054e-09 -7.3672792204623949e-09 0.96875000000000000 0.031250000000000000 0.96874379321844095 0.031223433710301982 
1.0000000000000000 0.0000000000000000 0.0000000000000000 -6.8832230894778831e-06 -2.7237117818857789e-05 -0.0016316215476491955 0.0000000000000000 0.0000000000000000 1.0000000000000000 0.0000000000000000 0.99999311677691050 -2.7237117818857789e-05 
1.0000000000000000 0.031250000000000000 0.0000000000000000 -6.2075799821421966e-06 -2.7236869787653222e-05 -0.0013679747975086345 0.0000000000000000 2.6692241897081383e-09 1.0000000000000000 0.031250000000000000 0.99999379242001785 0.031222763130212345 
0.031250000000000000 0.062500000000000000 0.0000000000000000 -1.4353060192360824e-07 -1.1092181871070956e-06 1.9763051586245137 3.8680152552857293e-07 8.2753176416286881e-07 0.031250000000000000 0.062500000000000000 0.031249856469398072 0.062498890781812901 
0.0000000000000000 0.062500000000000000 0.0000000000000000 0.0000000000000000 0.0000000000000000 1.9763813161129962 0.0000000000000000 1.1253697961102796e-06 0.0000000000000000 0.062500000000000000 0.0000000000000000 0.062500000000000000 
0.062500000000000000 0.062500000000000000 0.0000000000000000 -4.9994304219864028e-07 -2.2880160886874878e-06 1.7490417631071791 9.7836328440536523e-07 3.8971572845688395e-07 0.062500000000000000 0.062500000000000000 0.062499500056957806 0.062497711983911304 
0.093750000000000000 0.062500000000000000 0.0000000000000000 -9.8931380943453998e-07 -3.4380084486536313e-06 1.4620367105989605 8.7114244265384371e-07 4.3249539007738078e-08 0.093750000000000000 0.062500000000000000 0.093749010686190570 0.062496561991551347 
0.12500000000000000 0.062500000000000000 0.0000000000000000 -1.4672458216598082e-06 -4.4773156844454343e-06 1.2371546911206883 5.8768819202057099e-07 -1.6262680714141040e-08 0.12500000000000000 0.062500000000000000 0.12499853275417834 0.062495522684315553 
0.15625000000000000 0.062500000000000000 0.0000000000000000 -1.9132319829114510e-06 -5.4487240122616683e-06 1.0744109357256451 4.4073380925490848e-07 -2.8947658084809255e-09 0.15625000000000000 0.062500000000000000 0.15624808676801707 0.062494551275987735 
0.18750000000000000 0.062500000000000000 0.0000000000000000 -2.3241887116167742e-06 -6.3806319611860014e-06 0.95200498327307281 3.4150913483123332e-07 7.3779760295534293e-09 0.18750000000000000 0.062500000000000000 0.18749767581128837 0.062493619368038815 
0.21875000000000000 0.062500000000000000 0.0000000000000000 -2.7011667128811201e-06 -7.2895782048015411e-06 0.85428939778235302 2.8258090546430289e-07 1.5355055024434133e-08 0.21875000000000000 0.062500000000000000 0.21874729883328711 0.062492710421795196 
0.25000000000000000 0.062500000000000000 0.0000000000000000 -3.0461713327167139e-06 -8.1851143656562787e-06 0.77201816062669781 2.4429383726271984e-07 1.8626318145000655e-08 0.25000000000000000 0.062500000000000000 0.24999695382866730 0.062491814885634343 
0.28125000000000000 0.062500000000000000 0.0000000000000000 -3.3612579217427615e-06 -9.0726828336790607e-06 0.69989578167470368 2.1816976560579486e-07 1.8495810970610533e-08 0.28125000000000000 0.062500000000000000 0.28124663874207828 0.062490927317166323 
0.31250000000000000 0.062500000000000000 0.0000000000000000 -3.6482929361623445e-06 -9.9552286410321940e-06 0.63486400517126274 1.9915165964065569e-07 1.5880502859430980e-08 0.31250000000000000 0.062500000000000000 0.31249635170706386 0.062490044771358964 
0.34375000000000000 0.062500000000000000 0.0000000000000000 -3.9089275830152811e-06 -1.0834128429990662e-05 0.57511964823616590 1.8439203509857968e-07 1.1525128712476038e-08 0.34375000000000000 0.062500000000000000 0.34374609107241699 0.062489165871570003 
0.37500000000000000 0.062500000000000000 0.0000000000000000 -4.1446339975602755e-06 -1.1709749299899977e-05 0.51957856970711824 1.7222792098151404e-07 5.9815483466200707e-09 0.37500000000000000 0.062500000000000000 0.37499585536600244 0.062488290250700108 
0.40625000000000000 0.062500000000000000 0.0000000000000000 -4.3567529356997640e-06 -1.2581799542943665e-05 0.46758161377895863 1.6164992778555889e-07 -3.3377367400420902e-10 0.40625000000000000 0.062500000000000000 0.40624564324706430 0.062487418200457057 
0.43750000000000000 0.062500000000000000 0.0000000000000000 -4.5465366230311200e-06 -1.3449557449667567e-05 0.41872921741206581 1.5202699597598074e-07 -7.0972199731471866e-09 0.43750000000000000 0.062500000000000000 0.43749545346337698 0.062486550442550338 
0.46875000000000000 0.062500000000000000 0.0000000000000000 -4.7151828399157175e-06 -1.4312025791532334e-05 0.37278513403841590 1.4295402487024274e-07 -1.4049241929416744e-08 0.46875000000000000 0.062500000000000000 0.46874528481716010 0.062485687974208469 
0.50000000000000000 0.062500000000000000 0.0000000000000000 -4.8638605769260639e-06 -1.5168039465009346e-05 0.32961823989682087 1.3416633266313950e-07 -2.0974401927754190e-08 0.50000000000000000 0.062500000000000000 0.49999513613942309 0.062484831960534996 
0.53125000000000000 0.062500000000000000 0.0000000000000000 -4.9937287978495964e-06 -1.6016342923612372e-05 0.28916596833801433 1.2548996305549468e-07 -2.7686948707526153e-08 0.53125000000000000 0.062500000000000000 0.53124500627120230 0.062483983657076393 
0.56250000000000000 0.062500000000000000 0.0000000000000000 -5.1059499500417950e-06 -1.6855647985800797e-05 0.25141034760279707 1.1681227597413813e-07 -3.4019697396825607e-08 0.56250000000000000 0.062500000000000000 0.56249489405004993 0.062483144352014193 
0.59375000000000000 0.062500000000000000 0.0000000000000000 -5.2016996116447387e-06 -1.7684679171271698e-05 0.21636144993258796 1.0806471773699590e-07 -3.9814962721283327e-08 0.59375000000000000 0.062500000000000000 0.59374479830038840 0.062482315320828728 
0.62500000000000000 0.062500000000000000 0.0000000000000000 -5.2821733441943541e-06 -1.8502211751253369e-05 0.18404506870805618 9.9213440548369578e-08 -4.4916894269418017e-08 0.62500000000000000 0.062500000000000000 0.62499471782665583 0.062481497788248748 
0.65625000000000000 0.062500000000000000 0.0000000000000000 -5.3485915297605018e-06 -1.9307106603709753e-05 0.15449250961232797 9.0255551481870701e-08 -4.9164971842999665e-08 0.65625000000000000 0.062500000000000000 0.65624465140847021 0.062480692893396299 
0.68750000000000000 0.062500000000000000 0.0000000000000000 -5.4022027511215637e-06 -2.0098345421075830e-05 0.12773096514642418 8.1219401539656794e-08 -5.2388791815311282e-08 0.68750000000000000 0.062500000000000000 0.68749459779724897 0.062479901654578930 
0.71875000000000000 0.062500000000000000 0.0000000000000000 -5.4442861406868665e-06 -2.0875069647835584e-05 0.10377330423112884 7.2169135702669750e-08 -5.4404617749076694e-08 0.71875000000000000 0.062500000000000000 0.71874455571385931 0.062479124930352174 
0.75000000000000000 0.062500000000000000 0.0000000000000000 -5.4761530976639601e-06 -2.1636626616979771e-05 0.082606452914475700 6.3208294702984076e-08 -5.5014903954552516e-08 0.75000000000000000 0.062500000000000000 0.74999452384690235 0.062478363373383021 
0.78125000000000000 0.062500000000000000 0.0000000000000000 -5.4991488755343795e-06 -2.2382626613231602e-05 0.064178160367634143 5.4494537617368256e-08 -5.4012165579150351e-08 0.78125000000000000 0.062500000000000000 0.78124450085112451 0.062477617373386758 
0.81250000000000000 0.062500000000000000 0.0000000000000000 -5.5146547685282700e-06 -2.3113014879984794e-05 0.048383189280700824 4.6208940864331452e-08 -5.1192043866914720e-08 0.81250000000000000 0.062500000000000000 0.81249448534523150 0.062476886985120016 
0.84375000000000000 0.062500000000000000 0.0000000000000000 -5.5240919097165047e-06 -2.3828162668845231e-05 0.035052938869637472 3.8647419644989947e-08 -4.6376210441589859e-08 0.84375000000000000 0.062500000000000000 0.84374447590809043 0.062476171837331153 
0.87500000000000000 0.062500000000000000 0.0000000000000000 -5.5289276157573682e-06 -2.4528980801001213e-05 0.023957258577750953 3.1797947890550712e-08 -3.9470333570368706e-08 0.87500000000000000 0.062500000000000000 0.87499447107238415 0.062475471019199001 
0.90625000000000000 0.062500000000000000 0.0000000000000000 -5.5306839860810869e-06 -2.5217057219780708e-05 0.014838576891674999 2.6445496681069175e-08 -3.0542991291355602e-08 0.90625000000000000 0.062500000000000000 0.90624446931601377 0.062474782942780215 
0.93750000000000000 0.062500000000000000 0.0000000000000000 -5.5309427012014334e-06 -2.5894815276122474e-05 0.0075010253888557121 1.9932487316152578e-08 -2.0027847474589361e-08 0.93750000000000000 0.062500000000000000 0.93749446905729883 0.062474105184723870 
0.96875000000000000 0.062500000000000000 0.0000000000000000 -5.5313260908424042e-06 -2.6565685766446088e-05 0.0019882903024640293 1.8557037154718982e-08 -9.3279199151454389e-09 0.96875000000000000 0.062500000000000000 0.96874446867390918 0.062473434314233557 
1.0000000000000000 0.062500000000000000 0.0000000000000000 -5.5333920497003164e-06 -2.7234301187586106e-05 -0.00071174455584418095 0.0000000000000000 3.1706222582140738e-10 1.0000000000000000 0.062500000000000000 0.99999446660795022 0.062472765698812417 
0.031250000000000000 0.093750000000000000 0.0000000000000000 -8.8712373050524242e-08 -9.1635129843458176e-07 1.7172445219524235 1.9559633971733543e-07 7.7749854048860849e-07 0.031250000000000000 0.093750000000000000 0.031249911287626945 0.093749083648701562 
0.0000000000000000 0.093750000000000000 0.0000000000000000 0.0000000000000000 0.0000000000000000 1.6896664051345354 0.0000000000000000 9.0352399869295620e-07 0.0000000000000000 0.093750000000000000 0.0000000000000000 0.093750000000000000 
0.062500000000000000 0.093750000000000000 0.0000000000000000 -3.0898632737034798e-07 -1.9386516584000765e-06 1.6037269039643034 5.4322257000334638e-07 5.6909666671274144e-07 0.062500000000000000 0.093750000000000000 0.062499691013672636 0.093748061348341585 
0.093750000000000000 0.093750000000000000 0.0000000000000000 -6.3782110816863534e-07 -2.9999859230833027e-06 1.4186635657808395 6.4344071277956289e-07 2.5022288357511579e-07 0.093750000000000000 0.093750000000000000 0.093749362178891835 0.093747000014076917 
0.12500000000000000 0.093750000000000000 0.0000000000000000 -1.0253029800110736e-06 -4.0423092544718271e-06 1.2271388990042535 5.6016193116652300e-07 9.2820802431312768e-08 0.12500000000000000 0.093750000000000000 0.12499897469701997 0.093745957690745549 
0.15625000000000000 0.093750000000000000 0.0000000000000000 -1.4147497355170053e-06 -5.0386470873036771e-06 1.0697067006758669 4.4045135155737545e-07 5.4019268475857103e-08 0.15625000000000000 0.093750000000000000 0.15624858525026444 0.093744961352912701 
0.18750000000000000 0.093750000000000000 0.0000000000000000 -1.7873439932882477e-06 -6.0004322491933206e-06 0.94627111808466136 3.4645632134602714e-07 4.3523424672262662e-08 0.18750000000000000 0.093750000000000000 0.18749821265600672 0.093743999567750813 
0.21875000000000000 0.093750000000000000 0.0000000000000000 -2.1364491428382413e-06 -6.9394637893081261e-06 0.84714775912536344 2.8558803886049244e-07 4.1979264998785074e-08 0.21875000000000000 0.093750000000000000 0.21874786355085715 0.093743060536210690 
0.25000000000000000 0.093750000000000000 0.0000000000000000 -2.4600483718982835e-06 -7.8639432903105006e-06 0.76432470459686241 2.4407812533569978e-07 3.9825148083284781e-08 0.25000000000000000 0.093750000000000000 0.24999753995162810 0.093742136056709682 
0.28125000000000000 0.093750000000000000 0.0000000000000000 -2.7579986175522473e-06 -8.7789974870143022e-06 0.69254915923379989 2.1541425572223640e-07 3.6217412028511677e-08 0.28125000000000000 0.093750000000000000 0.28124724200138246 0.093741221002512989 
0.31250000000000000 0.093750000000000000 0.0000000000000000 -3.0309253908046072e-06 -9.6875728700600820e-06 0.62857013826796992 1.9448884860352979e-07 3.1014325966546097e-08 0.31250000000000000 0.093750000000000000 0.31249696907460928 0.093740312427129935 
0.34375000000000000 0.093750000000000000 0.0000000000000000 -3.2797595527364458e-06 -1.0591130330717958e-05 0.57038676728590632 1.7839342925066651e-07 2.4585223670658754e-08 0.34375000000000000 0.093750000000000000 0.34374672024044722 0.093739408869669263 
0.37500000000000000 0.093750000000000000 0.0000000000000000 -3.5055421611273041e-06 -1.1490126784694858e-05 0.51675443825923040 1.6533780700346763e-07 1.7290349870179076e-08 0.37500000000000000 0.093750000000000000 0.37499649445783895 0.093738509873215303 
0.40625000000000000 0.093750000000000000 0.0000000000000000 -3.7093450061307351e-06 -1.2384342956789080e-05 0.46688898533628337 1.5421708234824710e-07 9.4466863252114901e-09 0.40625000000000000 0.093750000000000000 0.40624629065499379 0.093737615657043208 
0.43750000000000000 0.093750000000000000 0.0000000000000000 -3.8922413359860619e-06 -1.3273108220143142e-05 0.42029257695559985 1.4433103627353962e-07 1.3193181365439916e-09 0.43750000000000000 0.093750000000000000 0.43749610775866404 0.093736726891779851 
0.46875000000000000 0.093750000000000000 0.0000000000000000 -4.0552979170743703e-06 -1.4155457347514136e-05 0.37664971592067936 1.3522573655579231e-07 -6.8685627198117621e-09 0.46875000000000000 0.093750000000000000 0.46874594470208292 0.093735844542652491 
0.50000000000000000 0.093750000000000000 0.0000000000000000 -4.1995756087901013e-06 -1.5030241969515823e-05 0.33576326963848430 1.2660281848007468e-07 -1.4924896005753590e-08 0.50000000000000000 0.093750000000000000 0.49999580042439123 0.093734969758030487 