# For a description of the Tecplot format see the Tecplot User's guide.
#
Variables=x,y,z,s_u,s_v,s_p,x,y,ref_u,ref_v,u,v
Zone f=fepoint, n=289, e=512, et=quadrilateral, c=black
0.00000 0.00000 0.00000 0.0000000000000000 0.0000000000000000 1.8171327515335518 0.0000000000000000 0.0000000000000000 0.0000000000000000 0.0000000000000000 0.0000000000000000 0.0000000000000000 
0.062500000000000000 0.0000000000000000 0.0000000000000000 -1.5753612569547786e-06 -3.2335345517321962e-06 1.4837631532284832 1.2192438873717983e-06 0.0000000000000000 0.062500000000000000 0.0000000000000000 0.062498424638743048 -3.2335345517321962e-06 
0.062500000000000000 0.062500000000000000 0.0000000000000000 -3.8553795055869761e-07 -2.0517319966604132e-06 1.5211755853474394 7.0167770033314175e-07 3.3603946309186765e-07 0.062500000000000000 0.062500000000000000 0.062499614462049442 0.062497948268003346 
0.0000000000000000 0.062500000000000000 0.0000000000000000 0.0000000000000000 0.0000000000000000 1.5895921359198315 0.0000000000000000 9.5617420954088367e-07 0.0000000000000000 0.062500000000000000 0.0000000000000000 0.062500000000000000 
0.12500000000000000 0.0000000000000000 0.0000000000000000 -2.6364917952056482e-06 -5.1427369748864873e-06 1.0947342003633362 4.4370825209398488e-07 0.0000000000000000 0.12500000000000000 0.0000000000000000 0.12499736350820480 -5.1427369748864873e-06 
0.12500000000000000 0.062500000000000000 0.0000000000000000 -1.3264230710908443e-06 -4.2089637408814750e-06 1.1722082272526020 4.5336943478370432e-07 -1.4637006592131361e-07 0.12500000000000000 0.062500000000000000 0.12499867357692891 0.062495791036259123 
0.18750000000000000 0.0000000000000000 0.0000000000000000 -3.4806682695273944e-06 -6.8098099093978885e-06 0.85536817706604484 3.1638672863445381e-07 0.0000000000000000 0.18750000000000000 0.0000000000000000 0.18749651933173048 -6.8098099093978885e-06 
0.18750000000000000 0.062500000000000000 0.0000000000000000 -2.1262978047821819e-06 -6.0509346706491573e-06 0.90737692585987728 3.4866822114376395e-07 -4.1831322002740187e-08 0.18750000000000000 0.062500000000000000 0.18749787370219526 0.062493949065329353 
0.25000000000000000 0.0000000000000000 0.0000000000000000 -4.1776458492319424e-06 -8.4106648944432571e-06 0.68947097701322646 2.3480345321483200e-07 0.0000000000000000 0.25000000000000000 0.0000000000000000 0.24999582235415077 -8.4106648944432571e-06 
0.25000000000000000 0.062500000000000000 0.0000000000000000 -2.7982301823938735e-06 -7.7850666368339572e-06 0.72572233072843362 2.4066785044380088e-07 -2.9068432066636097e-08 0.25000000000000000 0.062500000000000000 0.24999720176981757 0.062492214933363162 
0.31250000000000000 0.0000000000000000 0.0000000000000000 -4.7538423436075887e-06 -9.9916937800330075e-06 0.56056681910427753 1.9308216662147964e-07 0.0000000000000000 0.31250000000000000 0.0000000000000000 0.31249524615765639 -9.9916937800330075e-06 
0.31250000000000000 0.062500000000000000 0.0000000000000000 -3.3580435265563211e-06 -9.4772075581555510e-06 0.58983554079807232 1.9271163666759613e-07 -2.0831026691476562e-08 0.31250000000000000 0.062500000000000000 0.31249664195647342 0.062490522792441834 
0.37500000000000000 0.0000000000000000 0.0000000000000000 -5.2232649285073654e-06 -1.1564085807509732e-05 0.45295571835733689 1.6714899351393807e-07 0.0000000000000000 0.37500000000000000 0.0000000000000000 0.37499477673507148 -1.1564085807509732e-05 
0.37500000000000000 0.062500000000000000 0.0000000000000000 -3.8182115046883222e-06 -1.1146736629154467e-05 0.47979940405307686 1.6142295383950364e-07 -2.3813305686020740e-08 0.37500000000000000 0.062500000000000000 0.37499618178849531 0.062488853263370843 
0.43750000000000000 0.0000000000000000 0.0000000000000000 -5.5961248555944381e-06 -1.3126277436425793e-05 0.35998280681641032 1.4703037305083663e-07 0.0000000000000000 0.43750000000000000 0.0000000000000000 0.43749440387514443 -1.3126277436425793e-05 
0.43750000000000000 0.062500000000000000 0.0000000000000000 -4.1892222080046855e-06 -1.2795362614119358e-05 0.38639736553179987 1.3909439670492419e-07 -3.0866019608729865e-08 0.43750000000000000 0.062500000000000000 0.43749581077779193 0.062487204637385878 
0.50000000000000000 0.0000000000000000 0.0000000000000000 -5.8817588517554434e-06 -1.4671675856887886e-05 0.27894762766017051 1.2895698063206151e-07 0.0000000000000000 0.50000000000000000 0.0000000000000000 0.49999411824114826 -1.4671675856887886e-05 
0.50000000000000000 0.062500000000000000 0.0000000000000000 -4.4805865825626278e-06 -1.4417639448885628e-05 0.30555726040896425 1.2062098756812870e-07 -3.9135675866712943e-08 0.50000000000000000 0.062500000000000000 0.49999551941341741 0.062485582360551122 
0.56250000000000000 0.0000000000000000 0.0000000000000000 -6.0897273161142646e-06 -1.6191984312500927e-05 0.20887300023007641 1.1123028494180692e-07 0.0000000000000000 0.56250000000000000 0.0000000000000000 0.56249391027268392 -1.6191984312500927e-05 
0.56250000000000000 0.062500000000000000 0.0000000000000000 -4.7014435135687981e-06 -1.6005482565598612e-05 0.23554718132373167 1.0373968217018814e-07 -4.6763997487831993e-08 0.56250000000000000 0.062500000000000000 0.56249529855648639 0.062483994517434409 
0.62500000000000000 0.0000000000000000 0.0000000000000000 -6.2302675865046718e-06 -1.7678926328345385e-05 0.14950614335181234 9.3128561379497226e-08 0.0000000000000000 0.62500000000000000 0.0000000000000000 0.62499376973241350 -1.7678926328345385e-05 
0.62500000000000000 0.062500000000000000 0.0000000000000000 -4.8609099225970631e-06 -1.7550404833039985e-05 0.17565732121243119 8.7514780638266890e-08 -5.2503798701867468e-08 0.62500000000000000 0.062500000000000000 0.62499513909007742 0.062482449595166960 
0.68750000000000000 0.0000000000000000 0.0000000000000000 -6.3145195818364290e-06 -1.9125356611433628e-05 0.10083752437212801 7.4606856887251244e-08 0.0000000000000000 0.68750000000000000 0.0000000000000000 0.68749368548041812 -1.9125356611433628e-05 
0.68750000000000000 0.062500000000000000 0.0000000000000000 -4.9682919337641802e-06 -1.9044845647141375e-05 0.12556030100940221 7.1756090601497941e-08 -5.5347828807401101e-08 0.68750000000000000 0.062500000000000000 0.68749503170806625 0.062480955154352862 
0.75000000000000000 0.0000000000000000 0.0000000000000000 -6.3546661368071134e-06 -2.0526220906769443e-05 0.062827394298005934 5.5381937613030297e-08 0.0000000000000000 0.75000000000000000 0.0000000000000000 0.74999364533386315 -2.0526220906769443e-05 
0.75000000000000000 0.062500000000000000 0.0000000000000000 -5.0332306446248631e-06 -2.0483223888558060e-05 0.084972757645942101 5.6406700349939222e-08 -5.4400850506594117e-08 0.75000000000000000 0.062500000000000000 0.74999496676935540 0.062479516776111445 
0.81250000000000000 0.0000000000000000 0.0000000000000000 -6.3639882339339050e-06 -2.1879651967076892e-05 0.035218938747996059 3.7338066441383629e-08 0.0000000000000000 0.81250000000000000 0.0000000000000000 0.81249363601176616 -2.1879651967076892e-05 
0.81250000000000000 0.062500000000000000 0.0000000000000000 -5.0658266937535256e-06 -2.1863086724908329e-05 0.053472914919465799 4.2727455540012844e-08 -4.8767609113753489e-08 0.81250000000000000 0.062500000000000000 0.81249493417330620 0.062478136913275091 
0.87500000000000000 0.0000000000000000 0.0000000000000000 -6.3566801081343969e-06 -2.3188378868669885e-05 0.017364237053833675 1.7753033948482263e-08 0.0000000000000000 0.87500000000000000 0.0000000000000000 0.87499364331989182 -2.3188378868669885e-05 
0.87500000000000000 0.062500000000000000 0.0000000000000000 -5.0767548623035590e-06 -2.3186625441755178e-05 0.030444197667852821 2.8335883676849508e-08 -3.8029281549352770e-08 0.87500000000000000 0.062500000000000000 0.87499492324513783 0.062476813374558245 
0.93750000000000000 0.0000000000000000 0.0000000000000000 -6.3469101237205927e-06 -2.4461255971654773e-05 0.0079881560986602776 6.5108728768244386e-09 0.0000000000000000 0.93750000000000000 0.0000000000000000 0.93749365308987631 -2.4461255971654773e-05 
0.93750000000000000 0.062500000000000000 0.0000000000000000 -5.0773064192972350e-06 -2.4462736832289282e-05 0.015201186979779851 2.3102099455690126e-08 -2.2892576304990034e-08 0.93750000000000000 0.062500000000000000 0.93749492269358081 0.062475537263167701 
1.0000000000000000 0.0000000000000000 0.0000000000000000 -6.3445452871405241e-06 -2.5711668709856963e-05 0.0046716675740864745 0.0000000000000000 0.0000000000000000 1.0000000000000000 0.0000000000000000 0.99999365545471286 -2.5711668709856963e-05 
1.0000000000000000 0.062500000000000000 0.0000000000000000 -5.0788358759081152e-06 -2.5709339098493826e-05 0.0080028712460023729 0.0000000000000000 -6.6525832438016921e-09 1.0000000000000000 0.062500000000000000 0.99999492116412414 0.062474290660901509 
0.062500000000000000 0.12500000000000000 0.0000000000000000 -1.7520986718077029e-07 -1.6090400170203870e-06 1.2658872176112568 8.6533445766609615e-08 4.3790294821869398e-07 0.062500000000000000 0.12500000000000000 0.062499824790132823 0.12499839095998298 
0.0000000000000000 0.12500000000000000 0.0000000000000000 0.0000000000000000 0.0000000000000000 1.2315012663275449 0.0000000000000000 5.6834150484237768e-07 0.0000000000000000 0.12500000000000000 0.0000000000000000 0.12500000000000000 
0.12500000000000000 0.12500000000000000 0.0000000000000000 -6.1808300427600625e-07 -3.4544536253720371e-06 1.1074659419628141 3.6754944664073964e-07 2.5348104014141393e-07 0.12500000000000000 0.12500000000000000 0.12499938191699571 0.12499654554637463 
0.18750000000000000 0.12500000000000000 0.0000000000000000 -1.2254906801586995e-06 -5.3697836341789734e-06 0.89067089099530072 3.3361276561696118e-07 9.5006457446232680e-08 0.18750000000000000 0.12500000000000000 0.18749877450931984 0.12499463021636582 
0.25000000000000000 0.12500000000000000 0.0000000000000000 -1.7881381331195115e-06 -7.2045929847637446e-06 0.71595159365208205 2.3295992002350484e-07 5.2073617415360619e-08 0.25000000000000000 0.12500000000000000 0.24999821186186688 0.12499279540701523 
0.31250000000000000 0.12500000000000000 0.0000000000000000 -2.2760930392150227e-06 -8.9925089375653119e-06 0.58393760789838467 1.8448332781658385e-07 3.6858440056740685e-08 0.31250000000000000 0.12500000000000000 0.31249772390696079 0.12499100749106241 
0.37500000000000000 0.12500000000000000 0.0000000000000000 -2.6858177045714877e-06 -1.0749150352699200e-05 0.47937092578684365 1.5020022968379590e-07 2.0848187168446652e-08 0.37500000000000000 0.12500000000000000 0.37499731418229537 0.12498925084964731 
0.43750000000000000 0.12500000000000000 0.0000000000000000 -3.0208979060518253e-06 -1.2476227592110145e-05 0.39246242261676861 1.2778695071944118e-07 5.9922481517302630e-09 0.43750000000000000 0.12500000000000000 0.43749697910209395 0.12498752377240789 
0.50000000000000000 0.12500000000000000 0.0000000000000000 -3.2872565158402374e-06 -1.4168631888723514e-05 0.31817617303921991 1.1028042628737156e-07 -8.0859900820782723e-09 0.50000000000000000 0.12500000000000000 0.49999671274348417 0.12498583136811127 
0.56250000000000000 0.12500000000000000 0.0000000000000000 -3.4916542897543202e-06 -1.5818472444890748e-05 0.25404214024626565 9.5302273939495540e-08 -2.0499252400027795e-08 0.56250000000000000 0.12500000000000000 0.56249650834571030 0.12498418152755510 
0.62500000000000000 0.12500000000000000 0.0000000000000000 -3.6411875649153086e-06 -1.7417289328108600e-05 0.19880202516248480 8.1694327824873955e-08 -3.0598626687908975e-08 0.62500000000000000 0.12500000000000000 0.62499635881243509 0.12498258271067188 
0.68750000000000000 0.12500000000000000 0.0000000000000000 -3.7431616689030175e-06 -1.8957392083050080e-05 0.15167598100828691 6.9221184267599520e-08 -3.7768647150423266e-08 0.68750000000000000 0.12500000000000000 0.68749625683833104 0.12498104260791697 
0.75000000000000000 0.12500000000000000 0.0000000000000000 -3.8051647443990525e-06 -2.0432870391803147e-05 0.11197146912576916 5.7701125762507905e-08 -4.1464017300863769e-08 0.75000000000000000 0.12500000000000000 0.74999619483525570 0.12497956712960821 
0.81250000000000000 0.12500000000000000 0.0000000000000000 -3.8353264886592880e-06 -2.1840617979335247e-05 0.078914732681409777 4.8524509051621588e-08 -4.1055824126306103e-08 0.81250000000000000 0.12500000000000000 0.81249616467351149 0.12497815938202068 
0.87500000000000000 0.12500000000000000 0.0000000000000000 -3.8428118224225676e-06 -2.3181623818494091e-05 0.051731853511888352 3.7722248546293507e-08 -3.6563539941051445e-08 0.87500000000000000 0.12500000000000000 0.87499615718817758 0.12497681837618151 
0.93750000000000000 0.12500000000000000 0.0000000000000000 -3.8386297555930023e-06 -2.4462783573596023e-05 0.030262496618402222 3.7502065980116519e-08 -2.7426838031792425e-08 0.93750000000000000 0.12500000000000000 0.93749616137024450 0.12497553721642640 
1.0000000000000000 0.12500000000000000 0.0000000000000000 -3.8367844128628869e-06 -2.5699771967320582e-05 0.017348654749349272 0.0000000000000000 -1.8169410534923611e-08 1.0000000000000000 0.12500000000000000 0.99999616321558715 0.12497430022803267 
0.062500000000000000 0.18750000000000000 0.0000000000000000 -9.3480197146565473e-08 -1.3854186399450650e-06 0.99418985389932335 1.1129291019696451e-08 4.0290140366643414e-07 0.062500000000000000 0.18750000000000000 0.062499906519802854 0.18749861458136005 
0.0000000000000000 0.18750000000000000 0.0000000000000000 0.0000000000000000 0.0000000000000000 0.93957389875920772 0.0000000000000000 4.5285295232278085e-07 0.0000000000000000 0.18750000000000000 0.0000000000000000 0.18750000000000000 
0.12500000000000000 0.18750000000000000 0.0000000000000000 -3.2545622981698708e-07 -3.0445561397136810e-06 0.93310646987227763 1.7966747364675136e-07 3.1664023299413557e-07 0.12500000000000000 0.18750000000000000 0.12499967454377019 0.18749695544386027 
0.18750000000000000 0.18750000000000000 0.0000000000000000 -6.7556590938921486e-07 -4.8630986364693916e-06 0.80830156892204963 2.2459388434561433e-07 1.7538824933277954e-07 0.18750000000000000 0.18750000000000000 0.18749932443409059 0.18749513690136352 
0.25000000000000000 0.18750000000000000 0.0000000000000000 -1.0791080416282638e-06 -6.7313142939126995e-06 0.67148006907390745 2.0287770378822285e-07 9.5543943747233425e-08 0.25000000000000000 0.18750000000000000 0.24999892089195838 0.18749326868570607 
0.31250000000000000 0.18750000000000000 0.0000000000000000 -1.4571683502415399e-06 -8.5820878789676138e-06 0.55596935007910731 1.6370814596826721e-07 6.1290151608036533e-08 0.31250000000000000 0.18750000000000000 0.31249854283164974 0.18749141791212101 
0.37500000000000000 0.18750000000000000 0.0000000000000000 -1.7855081344553217e-06 -1.0406420350990882e-05 0.46281328991114873 1.3253406936778239e-07 3.7764184903314110e-08 0.37500000000000000 0.18750000000000000 0.37499821449186554 0.18748959357964901 
0.43750000000000000 0.18750000000000000 0.0000000000000000 -2.0577672670469730e-06 -1.2198744838910424e-05 0.38603834215097299 1.1147114862505719e-07 1.9016881465401888e-08 0.43750000000000000 0.18750000000000000 0.43749794223273303 0.18748780125516110 
0.50000000000000000 0.18750000000000000 0.0000000000000000 -2.2745138432741853e-06 -1.3951499138935737e-05 0.32107484389671220 9.5394689263360501e-08 2.1369967811498527e-09 0.50000000000000000 0.18750000000000000 0.49999772548615679 0.18748604850086106 
0.56250000000000000 0.18750000000000000 0.0000000000000000 -2.4392092202821902e-06 -1.5655892631393587e-05 0.26521375734674413 8.2468177981612415e-08 -1.2679881273408284e-08 0.56250000000000000 0.18750000000000000 0.56249756079077973 0.18748434410736861 
0.62500000000000000 0.18750000000000000 0.0000000000000000 -2.5565714274457812e-06 -1.7303085592729244e-05 0.21686522826166918 7.1440722267039665e-08 -2.5196446112554316e-08 0.62500000000000000 0.18750000000000000 0.62499744342857255 0.18748269691440725 
0.68750000000000000 0.18750000000000000 0.0000000000000000 -2.6319437768283497e-06 -1.8885100677751864e-05 0.17493358319901528 6.2045889980914875e-08 -3.5031215126128801e-08 0.68750000000000000 0.18750000000000000 0.68749736805622319 0.18748111489932226 
0.75000000000000000 0.18750000000000000 0.0000000000000000 -2.6711912981555003e-06 -2.0395546524482459e-05 0.13843138135118577 5.4080570656386188e-08 -4.1860578757819313e-08 0.75000000000000000 0.18750000000000000 0.74999732880870174 0.18747960445347553 
0.81250000000000000 0.18750000000000000 0.0000000000000000 -2.6809900196991776e-06 -2.1830316777552753e-05 0.10631819151225269 4.8877563228411890e-08 -4.5228756459857148e-08 0.81250000000000000 0.18750000000000000 0.81249731900998035 0.18747816968322242 
0.87500000000000000 0.18750000000000000 0.0000000000000000 -2.6695186416679691e-06 -2.3188413108073647e-05 0.077651135333507482 4.1910218788112157e-08 -4.5262375064008390e-08 0.87500000000000000 0.18750000000000000 0.87499733048135830 0.18747681158689192 
0.93750000000000000 0.18750000000000000 0.0000000000000000 -2.6476337895175887e-06 -2.4473053218910091e-05 0.052506505337152808 4.6608104904682463e-08 -4.0503834911035514e-08 0.93750000000000000 0.18750000000000000 0.93749735236621046 0.18747552694678113 
1.0000000000000000 0.18750000000000000 0.0000000000000000 -2.6306013343352677e-06 -2.5693465735185914e-05 0.034932501690891141 0.0000000000000000 -3.7351864975271809e-08 1.0000000000000000 0.18750000000000000 0.99999736939866557 0.18747430653426481 
0.062500000000000000 0.25000000000000000 0.0000000000000000 -5.1566382235955999e-08 -1.2706317219627513e-06 0.76202935702196328 -4.1452182203029362e-08 3.3435884433890463e-07 0.062500000000000000 0.25000000000000000 0.062499948433617773 0.24999872936827802 
0.0000000000000000 0.25000000000000000 0.0000000000000000 0.0000000000000000 0.0000000000000000 0.70354923248534107 0.0000000000000000 3.6361165531657897e-07 0.0000000000000000 0.25000000000000000 0.0000000000000000 0.25000000000000000 
0.12500000000000000 0.25000000000000000 0.0000000000000000 -1.7028682081095943e-07 -2.8188332636190926e-06 0.74387160387916884 8.5920340718072598e-08 2.9194925446685604e-07 0.12500000000000000 0.25000000000000000 0.12499982971317918 0.24999718116673639 
0.18750000000000000 0.25000000000000000 0.0000000000000000 -3.5973220537036146e-07 -4.5572545906655979e-06 0.68038933341520780 1.2412337104950140e-07 2.2009484865934664e-07 0.18750000000000000 0.25000000000000000 0.18749964026779464 0.24999544274540933 
0.25000000000000000 0.25000000000000000 0.0000000000000000 -5.9814896462091019e-07 -6.3988149076319912e-06 0.59453051014962044 1.4452860754024268e-07 1.4656986374950200e-07 0.25000000000000000 0.25000000000000000 0.24999940185103539 0.24999360118509237 
0.31250000000000000 0.25000000000000000 0.0000000000000000 -8.4801050567695377e-07 -8.2752863555116951e-06 0.50803074512963819 1.2936842700490010e-07 9.2041235307732035e-08 0.31250000000000000 0.25000000000000000 0.31249915198949435 0.24999172471364448 
0.37500000000000000 0.25000000000000000 0.0000000000000000 -1.0751486211217220e-06 -1.0144128891951226e-05 0.43269947616267918 1.0893023783048304e-07 5.8961548456086634e-08 0.37500000000000000 0.25000000000000000 0.37499892485137881 0.24998985587110803 
0.43750000000000000 0.25000000000000000 0.0000000000000000 -1.2652522493613380e-06 -1.1985920506388488e-05 0.36936659245387132 9.1839519634402713e-08 3.4756455059735053e-08 0.43750000000000000 0.25000000000000000 0.43749873474775064 0.24998801407949364 
0.50000000000000000 0.25000000000000000 0.0000000000000000 -1.4138695247494030e-06 -1.3787445551027242e-05 0.31575732249410221 7.8388498387354487e-08 1.4856750577348859e-08 0.50000000000000000 0.25000000000000000 0.49999858613047526 0.24998621255444897 
0.56250000000000000 0.25000000000000000 0.0000000000000000 -1.5212180924593190e-06 -1.5537519642785338e-05 0.26974382611309383 6.7815498461909296e-08 -2.1105480743895168e-09 0.56250000000000000 0.25000000000000000 0.56249847878190751 0.24998446248035719 
0.62500000000000000 0.25000000000000000 0.0000000000000000 -1.5897265395914046e-06 -1.7226225788248433e-05 0.22979136470987763 5.9217396052629248e-08 -1.6637751764510114e-08 0.62500000000000000 0.25000000000000000 0.62499841027346037 0.24998277377421174 
0.68750000000000000 0.25000000000000000 0.0000000000000000 -1.6229462805356775e-06 -1.8844950484775299e-05 0.19471800534855044 5.2416296716706254e-08 -2.8772206438522874e-08 0.68750000000000000 0.25000000000000000 0.68749837705371941 0.24998115504951524 
0.75000000000000000 0.25000000000000000 0.0000000000000000 -1.6252310908041577e-06 -2.0386579056323888e-05 0.16341588158914341 4.7242744190668591e-08 -3.8517497879186817e-08 0.75000000000000000 0.25000000000000000 0.74999837476890907 0.24997961342094369 
0.81250000000000000 0.25000000000000000 0.0000000000000000 -1.6019594086277149e-06 -2.1845716576167830e-05 0.13471139160083676 4.4973533759478126e-08 -4.5675326264280740e-08 0.81250000000000000 0.25000000000000000 0.81249839804059132 0.24997815428342382 
0.87500000000000000 0.25000000000000000 0.0000000000000000 -1.5602522917306694e-06 -2.3218918806456682e-05 0.10752260870162011 4.1120196756640440e-08 -5.0539068953458814e-08 0.87500000000000000 0.25000000000000000 0.87499843974770830 0.24997678108119351 
0.93750000000000000 0.25000000000000000 0.0000000000000000 -1.5102182710927010e-06 -2.4504939327271033e-05 0.081871625506711510 4.9294647653405082e-08 -5.1299363762457880e-08 0.93750000000000000 0.25000000000000000 0.93749848978172878 0.24997549506067274 
1.0000000000000000 0.25000000000000000 0.0000000000000000 -1.4666756587092322e-06 -2.5705056155084952e-05 0.061441285585298468 0.0000000000000000 -5.3471535251595141e-08 1.0000000000000000 0.25000000000000000 0.99999853332434130 0.24997429494384490 
0.062500000000000000 0.31250000000000000 0.0000000000000000 -2.6574344117225086e-08 -1.2179499962678245e-06 0.56432389581123943 -6.5736467624860163e-08 2.9215141799713924e-07 0.062500000000000000 0.31250000000000000 0.062499973425655886 0.31249878205000375 
0.0000000000000000 0.31250000000000000 0.0000000000000000 0.0000000000000000 0.0000000000000000 0.50459708997498132 0.0000000000000000 3.0958548518891279e-07 0.0000000000000000 0.31250000000000000 0.0000000000000000 0.31250000000000000 
0.12500000000000000 0.31250000000000000 0.0000000000000000 -7.5663586932153858e-08 -2.7064205329127203e-06 0.56962848484802964 3.6960100607986492e-08 2.6459784260684250e-07 0.12500000000000000 0.31250000000000000 0.12499992433641306 0.31249729357946704 
0.18750000000000000 0.31250000000000000 0.0000000000000000 -1.5818693269352522e-07 -4.3941455535124121e-06 0.54283302637000741 6.0748308635753921e-08 2.1667440208691538e-07 0.18750000000000000 0.31250000000000000 0.18749984181306731 0.31249560585444641 
0.25000000000000000 0.31250000000000000 0.0000000000000000 -2.6936562079598601e-07 -6.2081094795870524e-06 0.49707110397323023 8.2935504995122162e-08 1.6315759635667242e-07 0.25000000000000000 0.31250000000000000 0.24999973063437916 0.31249379189052040 
0.31250000000000000 0.31250000000000000 0.0000000000000000 -3.9347819743113985e-07 -8.0855028290904444e-06 0.44340691435543295 8.6127085592220361e-08 1.1326037455719624e-07 0.31250000000000000 0.31250000000000000 0.31249960652180259 0.31249191449717090 
0.37500000000000000 0.31250000000000000 0.0000000000000000 -5.1122955121117751e-07 -9.9782618992064946e-06 0.39087912173895067 7.9122576987671277e-08 7.4956170984685722e-08 0.37500000000000000 0.31250000000000000 0.37499948877044881 0.31249002173810081 
0.43750000000000000 0.31250000000000000 0.0000000000000000 -6.0749415721966994e-07 -1.1853928684221223e-05 0.34413122499856136 6.8607939214185971e-08 4.6453906795845962e-08 0.43750000000000000 0.31250000000000000 0.43749939250584280 0.31248814607131575 
0.50000000000000000 0.31250000000000000 0.0000000000000000 -6.7530460589382368e-07 -1.3692121180838762e-05 0.30376161030465160 5.9096721361591275e-08 2.3903408764339817e-08 0.50000000000000000 0.31250000000000000 0.49999932469539404 0.31248630787881915 
0.56250000000000000 0.31250000000000000 0.0000000000000000 -7.1267929951847929e-07 -1.5478170622355139e-05 0.26891940268934239 5.1265902499162206e-08 5.0445759459160599e-09 0.56250000000000000 0.31250000000000000 0.56249928732070054 0.31248452182937764 
0.62500000000000000 0.31250000000000000 0.0000000000000000 -7.2029061178265817e-07 -1.7200476942599185e-05 0.23855621730626211 4.5011234297553847e-08 -1.1151124587458370e-08 0.62500000000000000 0.31250000000000000 0.62499927970938807 0.31248279952305741 
0.68750000000000000 0.31250000000000000 0.0000000000000000 -7.0022087911621855e-07 -1.8849478478942921e-05 0.21167208584509659 4.0370908367998217e-08 -2.5147123943558499e-08 0.68750000000000000 0.31250000000000000 0.68749929977912083 0.31248115052152103 
0.75000000000000000 0.31250000000000000 0.0000000000000000 -6.5549407810865476e-07 -2.0417177823222321e-05 0.18723194928403530 3.7303644701680108e-08 -3.7247249253575399e-08 0.75000000000000000 0.31250000000000000 0.74999934450592187 0.31247958282217686 
0.81250000000000000 0.31250000000000000 0.0000000000000000 -5.9018987132934470e-07 -2.1896806956804992e-05 0.16407453490036819 3.7022397257047675e-08 -4.7504038196248162e-08 0.81250000000000000 0.31250000000000000 0.81249940981012869 0.31247810319304320 
0.87500000000000000 0.31250000000000000 0.0000000000000000 -5.1007076801282677e-07 -2.3282442084819227e-05 0.14103323831576312 3.5578000352234822e-08 -5.6346244320858356e-08 0.87500000000000000 0.31250000000000000 0.87499948992923204 0.31247671755791512 
0.93750000000000000 0.31250000000000000 0.0000000000000000 -4.2370893096928046e-07 -2.4568425374470574e-05 0.11783853553603267 4.6069274510793804e-08 -6.1721166084726013e-08 0.93750000000000000 0.31250000000000000 0.93749957629106906 0.31247543157462548 
1.0000000000000000 0.31250000000000000 0.0000000000000000 -3.4394881631848005e-07 -2.5748408515854345e-05 0.096483029588569677 0.0000000000000000 -6.8515746494972102e-08 1.0000000000000000 0.31250000000000000 0.99999965605118357 0.31247425159148412 
0.062500000000000000 0.37500000000000000 0.0000000000000000 -9.8359850514411130e-09 -1.2042101334938012e-06 0.39038683919263634 -8.4336198350595565e-08 2.6354336852233063e-07 0.062500000000000000 0.37500000000000000 0.062499990164014953 0.37499879578986656 
0.0000000000000000 0.37500000000000000 0.0000000000000000 0.0000000000000000 0.0000000000000000 0.32877662035482597 0.0000000000000000 2.7795910228701998e-07 0.0000000000000000 0.37500000000000000 0.0000000000000000 0.37500000000000000 
0.12500000000000000 0.37500000000000000 0.0000000000000000 -1.0904911974910815e-08 -2.6704570269927178e-06 0.41211064999528396 1.3875454753683566e-09 2.4034878645888025e-07 0.12500000000000000 0.37500000000000000 0.12499998909508803 0.37499732954297299 
0.18750000000000000 0.37500000000000000 0.0000000000000000 -1.5360943365532214e-08 -4.3358716476459114e-06 0.41034730948587977 1.5688869695595424e-08 2.0450539292809173e-07 0.18750000000000000 0.37500000000000000 0.18749998463905662 0.37499566412835234 
0.25000000000000000 0.37500000000000000 0.0000000000000000 -2.6461576565402449e-08 -6.1354596647752462e-06 0.39392984696495920 3.5645567844039676e-08 1.6417084509917728e-07 0.25000000000000000 0.37500000000000000 0.24999997353842343 0.37499386454033523 
0.31250000000000000 0.37500000000000000 0.0000000000000000 -4.0661655283725223e-08 -8.0112428464784240e-06 0.36884100479887949 4.3788209900627083e-08 1.2298227372429879e-07 0.31250000000000000 0.37500000000000000 0.31249995933834468 0.37499198875715350 
0.37500000000000000 0.37500000000000000 0.0000000000000000 -5.0532086052395823e-08 -9.9156587562127439e-06 0.34021989699436234 4.5757404816104241e-08 8.5970527909183501e-08 0.37500000000000000 0.37500000000000000 0.37499994946791393 0.37499008434124376 
0.43750000000000000 0.37500000000000000 0.0000000000000000 -4.8070504196211465e-08 -1.1812545184952711e-05 0.31208150673877594 4.2565971556155089e-08 5.5545875803028484e-08 0.43750000000000000 0.37500000000000000 0.43749995192949581 0.37498818745481505 
0.50000000000000000 0.37500000000000000 0.0000000000000000 -2.7588068928552133e-08 -1.3676115384993888e-05 0.28651875646304864 3.7813237828255963e-08 3.1021402595165476e-08 0.50000000000000000 0.37500000000000000 0.49999997241193112 0.37498632388461500 
0.56250000000000000 0.37500000000000000 0.0000000000000000 1.3305691279252394e-08 -1.5488294951828120e-05 0.26398904936361489 3.3165224929086767e-08 1.0591742025605960e-08 0.56250000000000000 0.37500000000000000 0.56250001330569133 0.37498451170504815 
0.62500000000000000 0.37500000000000000 0.0000000000000000 7.4793373673314341e-08 -1.7235653282205028e-05 0.24419372589551636 2.9289192325268116e-08 -6.9477636376827806e-09 0.62500000000000000 0.37500000000000000 0.62500007479337372 0.37498276434671779 
0.68750000000000000 0.37500000000000000 0.0000000000000000 1.5578899092273324e-07 -1.8907600997770095e-05 0.22654597054137668 2.6517124822019728e-08 -2.2370125808896415e-08 0.68750000000000000 0.37500000000000000 0.68750015578899093 0.37498109239900224 
0.75000000000000000 0.37500000000000000 0.0000000000000000 2.5438963542081062e-07 -2.0495294747482399e-05 0.21026605798103526 2.5015317331264846e-08 -3.6234206117802760e-08 0.75000000000000000 0.37500000000000000 0.75000025438963547 0.37497950470525249 
0.81250000000000000 0.37500000000000000 0.0000000000000000 3.6784870565101456e-07 -2.1990769782810812e-05 0.19434702191739109 2.5932004313492269e-08 -4.8837949041909374e-08 0.81250000000000000 0.37500000000000000 0.81250036784870561 0.37497800923021712 
0.87500000000000000 0.37500000000000000 0.0000000000000000 4.9209790725669031e-07 -2.3385997092658714e-05 0.17760573866568996 2.6265098151654346e-08 -6.0701551040784884e-08 0.87500000000000000 0.37500000000000000 0.87500049209790731 0.37497661400290733 