# For a description of the Tecplot format see the Tecplot User's guide.
#
Variables=x,y,z,s_u,s_v,s_p,x,y,ref_u,ref_v,u,v
Zone f=fepoint, n=9409, e=18432, et=quadrilateral, c=black
0.00000 0.00000 0.00000 0.0000000000000000 0.0000000000000000 3.8091976392094429 0.0000000000000000 0.0000000000000000 0.0000000000000000 0.0000000000000000 0.0000000000000000 0.0000000000000000 
0.010416666666666666 0.0000000000000000 0.0000000000000000 -5.5424051330335323e-07 -1.1977911127929903e-06 3.2521258836072264 1.1103570282499406e-05 0.0000000000000000 0.010416666666666666 0.0000000000000000 0.010416112426153363 -1.1977911127929903e-06 
0.010416666666666666 0.010416666666666666 0.0000000000000000 -1.4661026726844788e-07 -7.7759836456910860e-07 3.3744641414608254 7.1780912813478493e-06 2.0120387528297725e-06 0.010416666666666666 0.010416666666666666 0.010416520056399398 0.010415889068302098 
0.0000000000000000 0.010416666666666666 0.0000000000000000 0.0000000000000000 0.0000000000000000 3.5685583845507352 0.0000000000000000 6.1121742233662798e-06 0.0000000000000000 0.010416666666666666 0.0000000000000000 0.010416666666666666 
0.020833333333333332 0.0000000000000000 0.0000000000000000 -9.0888254738342100e-07 -1.8567859118904948e-06 2.5927320320846285 5.7823973967648320e-06 0.0000000000000000 0.020833333333333332 0.0000000000000000 0.020832424450785949 -1.8567859118904948e-06 
0.020833333333333332 0.010416666666666666 0.0000000000000000 -4.9118748362172490e-07 -1.5165438133816451e-06 2.7741377905980129 4.7392452830022856e-06 -1.9716945108144547e-06 0.020833333333333332 0.010416666666666666 0.020832842145849712 0.010415150122853283 
0.031250000000000000 0.0000000000000000 0.0000000000000000 -1.1921678392479080e-06 -2.3693841310680844e-06 2.1485493246100957 3.4162448572760298e-06 0.0000000000000000 0.031250000000000000 0.0000000000000000 0.031248807832160757 -2.3693841310680844e-06 
0.031250000000000000 0.010416666666666666 0.0000000000000000 -7.9272717256455322e-07 -2.0810089102555007e-06 2.2984187065740298 3.7071227491576382e-06 -1.4996614745659813e-06 0.031250000000000000 0.010416666666666666 0.031249207272827432 0.010414585657756411 
0.041666666666666664 0.0000000000000000 0.0000000000000000 -1.4389721729775713e-06 -2.8117377059001809e-06 1.8618475233751297 2.2375279506664723e-06 0.0000000000000000 0.041666666666666664 0.0000000000000000 0.041665227694493684 -2.8117377059001809e-06 
0.041666666666666664 0.010416666666666666 0.0000000000000000 -1.0613378179137145e-06 -2.5566685393510392e-06 1.9736169706887468 2.5117883157254607e-06 -1.2973259573255854e-06 0.041666666666666664 0.010416666666666666 0.041665605328848748 0.010414109998127315 
0.052083333333333336 0.0000000000000000 0.0000000000000000 -1.6636001258936746e-06 -3.2114267923600945e-06 1.6671972266931652 1.5336202750235418e-06 0.0000000000000000 0.052083333333333336 0.0000000000000000 0.052081669733207443 -3.2114267923600945e-06 
0.052083333333333336 0.010416666666666666 0.0000000000000000 -1.3057853446354384e-06 -2.9792531815319777e-06 1.7503693395653344 1.7636274790728139e-06 -9.9310657146192463e-07 0.052083333333333336 0.010416666666666666 0.052082027547988692 0.010413687413485135 
0.062500000000000000 0.0000000000000000 0.0000000000000000 -1.8729913772060842e-06 -3.5822954485664969e-06 1.5281590070633104 1.1159985046445479e-06 0.0000000000000000 0.062500000000000000 0.0000000000000000 0.062498127008622791 -3.5822954485664969e-06 
0.062500000000000000 0.010416666666666666 0.0000000000000000 -1.5318178406203854e-06 -3.3668784541590053e-06 1.5913767209297520 1.2940143782254220e-06 -7.7610839111046074e-07 0.062500000000000000 0.010416666666666666 0.062498468182159379 0.010413299788212508 
0.072916666666666671 0.0000000000000000 0.0000000000000000 -2.0709208379487879e-06 -3.9324365055812658e-06 1.4236462255240958 8.5725131772447177e-07 0.0000000000000000 0.072916666666666671 0.0000000000000000 0.072914595745828717 -3.9324365055812658e-06 
0.072916666666666671 0.010416666666666666 0.0000000000000000 -1.7433289761347242e-06 -3.7299603906361175e-06 1.4729427630911298 9.9099164699591391e-07 -6.1103239114541399e-07 0.072916666666666671 0.010416666666666666 0.072914923337690549 0.010412936706276030 
0.083333333333333329 0.0000000000000000 0.0000000000000000 -2.2596475563844133e-06 -4.2670705132743263e-06 1.3413354379669939 6.8945207510954024e-07 0.0000000000000000 0.083333333333333329 0.0000000000000000 0.083331073685776941 -4.2670705132743263e-06 
0.083333333333333329 0.010416666666666666 0.0000000000000000 -1.9430339253938919e-06 -4.0750455536082860e-06 1.3807375507090132 7.9003094797163899e-07 -4.8787567734765979e-07 0.083333333333333329 0.010416666666666666 0.083331390299407934 0.010412591621113057 
0.093750000000000000 0.0000000000000000 0.0000000000000000 -2.4406300145688485e-06 -4.5897890186074567e-06 1.2738704615278820 5.7591342594829961e-07 0.0000000000000000 0.093750000000000000 0.0000000000000000 0.093747559369985425 -4.5897890186074567e-06 
0.093750000000000000 0.010416666666666666 0.0000000000000000 -2.1328741682188761e-06 -4.4065169272986284e-06 1.3060627575864492 6.5242626764814504e-07 -3.9455964547041292e-07 0.093750000000000000 0.010416666666666666 0.093747867125831788 0.010412260149739368 
0.10416666666666667 0.0000000000000000 0.0000000000000000 -2.6148694109561252e-06 -4.9031791187062702e-06 1.2167187083484947 4.9598290713442967e-07 0.0000000000000000 0.10416666666666667 0.0000000000000000 0.10416405179725570 -4.9031791187062702e-06 
0.10416666666666667 0.010416666666666666 0.0000000000000000 -2.3142703528336520e-06 -4.7274556125605211e-06 1.2435214238607362 5.5500957743132463e-07 -3.2266518120032335e-07 0.10416666666666667 0.010416666666666666 0.10416435239631384 0.010411939211054105 
0.11458333333333333 0.0000000000000000 0.0000000000000000 -2.7830868627025089e-06 -5.2091686896981392e-06 1.1669881339404693 4.3770003450672748e-07 0.0000000000000000 0.11458333333333333 0.0000000000000000 0.11458055024647062 -5.2091686896981392e-06 
0.11458333333333333 0.010416666666666666 0.0000000000000000 -2.4882835978908945e-06 -5.0401108885010064e-06 1.1896668519400431 4.8389391462689563e-07 -2.6635250231487182e-07 0.11458333333333333 0.010416666666666666 0.11458084504973544 0.010411626555778165 
0.12500000000000000 0.0000000000000000 0.0000000000000000 -2.9458214602115098e-06 -5.5092320190937317e-06 1.1227661894869418 3.9390348465671051e-07 0.0000000000000000 0.12500000000000000 0.0000000000000000 0.12499705417853979 -5.5092320190937317e-06 
0.12500000000000000 0.010416666666666666 0.0000000000000000 -2.6557215490213723e-06 -5.3461741983518545e-06 1.1422252152006980 4.3053527465076424e-07 -2.2158895286730334e-07 0.12500000000000000 0.010416666666666666 0.12499734427845098 0.010411320492468316 
0.13541666666666666 0.0000000000000000 0.0000000000000000 -3.1034880714467688e-06 -5.8045193989683953e-06 1.0827439603110141 3.6014524664642608e-07 0.0000000000000000 0.13541666666666666 0.0000000000000000 0.13541356317859521 -5.8045193989683953e-06 
0.13541666666666666 0.010416666666666666 0.0000000000000000 -2.8172096779860054e-06 -5.6469475253080087e-06 1.0996467458784238 3.8953060750711211e-07 -1.8556066057890426e-07 0.13541666666666666 0.010416666666666666 0.13541384945698867 0.010411019719141358 
0.14583333333333334 0.0000000000000000 0.0000000000000000 -3.2564134036445335e-06 -6.0959425916889389e-06 1.0459972259607160 3.3356042168256765e-07 0.0000000000000000 0.14583333333333334 0.0000000000000000 0.14583007691992969 -6.0959425916889389e-06 
0.14583333333333334 0.010416666666666666 0.0000000000000000 -2.9732401830296901e-06 -5.9434516838287905e-06 1.0608423579515616 3.5736148313330684e-07 -1.5626656632873629e-07 0.14583333333333334 0.010416666666666666 0.14583036009315031 0.010410723214982836 
0.15625000000000000 0.0000000000000000 0.0000000000000000 -3.4048596334104652e-06 -6.3842333133074643e-06 1.0118552497298354 3.1223865877394337e-07 0.0000000000000000 0.15625000000000000 0.0000000000000000 0.15624659514036660 -6.3842333133074643e-06 
0.15625000000000000 0.010416666666666666 0.0000000000000000 -3.1242061519841854e-06 -6.2364987255753910e-06 1.0250254075191532 3.3166776804849270e-07 -1.3225421946365709e-07 0.15625000000000000 0.010416666666666666 0.15624687579384802 0.010410430167941090 
0.16666666666666666 0.0000000000000000 0.0000000000000000 -3.5490405448323373e-06 -6.6699845024039547e-06 0.97981968284038368 2.9486485744203608e-07 0.0000000000000000 0.16666666666666666 0.0000000000000000 0.16666311762612182 -6.6699845024039547e-06 
0.16666666666666666 0.010416666666666666 0.0000000000000000 -3.2704258488072328e-06 -6.5267419979509193e-06 0.99161397334905821 3.1082123855405142e-07 -1.1244768385115583e-07 0.16666666666666666 0.010416666666666666 0.16666339624081786 0.010410139924668715 
0.17708333333333334 0.0000000000000000 0.0000000000000000 -3.6891329339203770e-06 -6.9536802082258082e-06 0.94951284292786753 2.8050763103258493e-07 0.0000000000000000 0.17708333333333334 0.0000000000000000 0.17707964420039943 -6.9536802082258082e-06 
0.17708333333333334 0.010416666666666666 0.0000000000000000 -3.4121602675132034e-06 -6.8147117631701009e-06 0.96016871552615368 2.9366930546241278e-07 -9.6034711355472355e-08 0.17708333333333334 0.010416666666666666 0.17707992117306584 0.010409851954903496 
0.18750000000000000 0.0000000000000000 0.0000000000000000 -3.8252848963735897e-06 -7.2357177246017004e-06 0.92064370426937236 2.6849079696928931e-07 0.0000000000000000 0.18750000000000000 0.0000000000000000 0.18749617471510363 -7.2357177246017004e-06 
0.18750000000000000 0.010416666666666666 0.0000000000000000 -3.5496260215530478e-06 -7.1008411805686485e-06 0.93035218186801993 2.7937701375158061e-07 -8.2391547662575627e-08 0.18750000000000000 0.010416666666666666 0.18749645037397844 0.010409565825486097 
0.19791666666666666 0.0000000000000000 0.0000000000000000 -3.9576219901152587e-06 -7.5164243017925032e-06 0.89298488609265803 2.5831282307909796e-07 0.0000000000000000 0.19791666666666666 0.0000000000000000 0.19791270904467653 -7.5164243017925032e-06 
0.19791666666666666 0.010416666666666666 0.0000000000000000 -3.6830049503944735e-06 -7.3854856720316091e-06 0.90190140175549205 2.6732702851288323e-07 -7.1031836523797973e-08 0.19791666666666666 0.010416666666666666 0.19791298366171625 0.010409281180994635 
0.20833333333333334 0.0000000000000000 0.0000000000000000 -4.0862519054265214e-06 -7.7960699806493809e-06 0.86635667202894862 2.4959478871107119e-07 0.0000000000000000 0.20833333333333334 0.0000000000000000 0.20832924708142789 -7.7960699806493809e-06 
0.20833333333333334 0.010416666666666666 0.0000000000000000 -3.8124513804540759e-06 -7.6689376293604180e-06 0.87460894435272196 2.5705464616040100e-07 -6.1571187024119706e-08 0.20833333333333334 0.010416666666666666 0.20832952088195289 0.010408997729037306 
0.21875000000000000 0.0000000000000000 0.0000000000000000 -4.2112680610244334e-06 -8.0748775981960600e-06 0.84061565140381000 2.4204580791101015e-07 0.0000000000000000 0.21875000000000000 0.0000000000000000 0.21874578873193898 -8.0748775981960600e-06 
0.21875000000000000 0.010416666666666666 0.0000000000000000 -3.9380976853514471e-06 -7.9514377698837695e-06 0.84830951722464676 2.4820449662825383e-07 -5.3702110909507631e-08 0.21875000000000000 0.010416666666666666 0.21874606190231469 0.010408715228896782 
0.22916666666666666 0.0000000000000000 0.0000000000000000 -4.3327524110683866e-06 -8.3530306934981678e-06 0.81564647800284085 2.3543945999834158e-07 0.0000000000000000 0.22916666666666666 0.0000000000000000 0.22916233391425558 -8.3530306934981678e-06 
0.22916666666666666 0.010416666666666666 0.0000000000000000 -4.0600585957607348e-06 -8.2331840332525439e-06 0.82287028530778283 2.4050101878005652e-07 -4.7175964181393952e-08 0.22916666666666666 0.010416666666666666 0.22916260660807089 0.010408433482633414 
0.23958333333333334 0.0000000000000000 0.0000000000000000 -4.4507776622291964e-06 -8.6306798303728843e-06 0.79135578140840657 2.2959735175557773e-07 0.0000000000000000 0.23958333333333334 0.0000000000000000 0.23957888255567114 -8.6306798303728843e-06 
0.23958333333333334 0.010416666666666666 0.0000000000000000 -4.1784345776230944e-06 -8.5143386433649726e-06 0.79818374737039344 2.3372789585765350e-07 -4.1789714055521442e-08 0.23958333333333334 0.010416666666666666 0.23957915489875573 0.010408152328023302 
0.25000000000000000 0.0000000000000000 0.0000000000000000 -4.5654090429934366e-06 -8.9079477095936083e-06 0.76766759615018465 2.2437741879788177e-07 0.0000000000000000 0.25000000000000000 0.0000000000000000 0.24999543459095699 -8.9079477095936083e-06 
0.25000000000000000 0.010416666666666666 0.0000000000000000 -4.2933145074477495e-06 -8.7950337800284770e-06 0.77416240819419357 2.2771345445425850e-07 -3.7376093268414262e-08 0.25000000000000000 0.010416666666666666 0.24999570668549256 0.010407871632886638 
0.26041666666666669 0.0000000000000000 0.0000000000000000 -4.6767057285849890e-06 -9.1849333437596288e-06 0.74451988125395951 2.1966544942299019e-07 0.0000000000000000 0.26041666666666669 0.0000000000000000 0.26041198996093812 -9.1849333437596288e-06 
0.26041666666666669 0.010416666666666666 0.0000000000000000 -4.4047778109688324e-06 -9.0753761827599272e-06 0.75073473571609395 2.2232011729603314e-07 -3.3796173935259084e-08 0.26041666666666669 0.010416666666666666 0.26041226188885563 0.010407591290483907 
0.27083333333333331 0.0000000000000000 0.0000000000000000 -4.7847219978769783e-06 -9.4617154979818427e-06 0.72186183624631128 2.1536884517476116e-07 0.0000000000000000 0.27083333333333331 0.0000000000000000 0.27082854861133543 -9.4617154979818427e-06 
0.27083333333333331 0.010416666666666666 0.0000000000000000 -4.5128961875302183e-06 -9.3554509242021197e-06 0.72784205330990448 2.1743666527720526e-07 -3.0933697223221964e-08 0.27083333333333331 0.010416666666666666 0.27082882043714579 0.010407311215742466 
0.28125000000000000 0.0000000000000000 0.0000000000000000 -4.8895081795013263e-06 -9.7383555494507319e-06 0.69965180759834034 2.1141196249669065e-07 0.0000000000000000 0.28125000000000000 0.0000000000000000 0.28124511049182049 -9.7383555494507319e-06 
0.28125000000000000 0.010416666666666666 0.0000000000000000 -4.6177350113335157e-06 -9.6353245305640398e-06 0.70543612297319980 2.1297248054696414e-07 -2.8690695525770818e-08 0.28125000000000000 0.010416666666666666 0.28124538226498869 0.010407031342136101 
0.29166666666666669 0.0000000000000000 0.0000000000000000 -4.9911114305397520e-06 -1.0014899882596707e-05 0.67785563874893695 2.0773259035596855e-07 0.0000000000000000 0.29166666666666669 0.0000000000000000 0.29166167555523614 -1.0014899882596707e-05 
0.29166666666666669 0.010416666666666666 0.0000000000000000 -4.7193544781851668e-06 -9.9150475833182204e-06 0.68347724593861869 2.0885320879615235e-07 -2.6984078408574171e-08 0.29166666666666669 0.010416666666666666 0.29166194731218847 0.010406751619083348 
0.30208333333333331 0.0000000000000000 0.0000000000000000 -5.0895763810669056e-06 -1.0291381909805503e-05 0.65644535741957644 2.0427925591022269e-07 0.0000000000000000 0.30208333333333331 0.0000000000000000 0.30207824375695225 -1.0291381909805503e-05 
0.30208333333333331 0.010416666666666666 0.0000000000000000 -4.8178105499843352e-06 -1.0194656904905762e-05 0.66193275556713482 2.0501745285016836e-07 -2.5742945623170236e-08 0.30208333333333331 0.010416666666666666 0.30207851552278336 0.010406472009761761 
0.31250000000000000 0.0000000000000000 0.0000000000000000 -5.1849456703250192e-06 -1.0567823787731536e-05 0.63539812224186976 2.0100914163381417e-07 0.0000000000000000 0.31250000000000000 0.0000000000000000 0.31249481505432969 -1.0567823787731536e-05 
0.31250000000000000 0.010416666666666666 0.0000000000000000 -4.9131557371157569e-06 -1.0474177407939667e-05 0.64077581098886405 2.0141422540418342e-07 -2.4906454412966454e-08 0.31250000000000000 0.010416666666666666 0.31249508684426286 0.010406192489258727 
0.32291666666666669 0.0000000000000000 0.0000000000000000 -5.2772603946973863e-06 -1.0844237884248126e-05 0.61469537078025871 1.9788645932253260e-07 0.0000000000000000 0.32291666666666669 0.0000000000000000 0.32291138940627201 -1.0844237884248126e-05 
0.32291666666666669 0.010416666666666666 0.0000000000000000 -5.0054397499205085e-06 -1.0753623670004589e-05 0.61998442369458096 1.9800096721761577e-07 -2.4422113471390274e-08 0.32291666666666669 0.010416666666666666 0.32291166122691678 0.010405913042996663 
0.33333333333333331 0.0000000000000000 0.0000000000000000 -5.3665604834009730e-06 -1.1120628039656646e-05 0.59432212544830210 1.9488116911907726e-07 0.0000000000000000 0.33333333333333331 0.0000000000000000 0.33332796677284993 -1.1120628039656646e-05 
0.33333333333333331 0.010416666666666666 0.0000000000000000 -5.0947100436580851e-06 -1.1033001283004315e-05 0.59954066628716796 1.9474199103765745e-07 -2.4244408182245319e-08 0.33333333333333331 0.010416666666666666 0.33332823862328964 0.010405633665383662 
0.34375000000000000 0.0000000000000000 0.0000000000000000 -5.4528850145742206e-06 -1.1396990657005599e-05 0.57426642430864161 1.9196796166036666e-07 0.0000000000000000 0.34375000000000000 0.0000000000000000 0.34374454711498542 -1.1396990657005599e-05 
0.34375000000000000 0.010416666666666666 0.0000000000000000 -5.1810122762432332e-06 -1.1312308015969890e-05 0.57943002494419937 1.9160724926417688e-07 -2.4333685164388982e-08 0.34375000000000000 0.010416666666666666 0.34374481898772374 0.010405354358650696 
0.35416666666666669 0.0000000000000000 0.0000000000000000 -5.5362724819360140e-06 -1.1673315649572523e-05 0.55451885146874413 1.8912544275155466e-07 0.0000000000000000 0.35416666666666669 0.0000000000000000 0.35416113039418473 -1.1673315649572523e-05 
0.35416666666666669 0.010416666666666666 0.0000000000000000 -5.2643906941135510e-06 -1.1591534822505255e-05 0.55964086620436704 1.8857135009160709e-07 -2.4655241292411876e-08 0.35416666666666669 0.010416666666666666 0.35416140227597254 0.010405075131844160 
0.36458333333333331 0.0000000000000000 0.0000000000000000 -5.6167610202494942e-06 -1.1949587268251412e-05 0.53507214752938281 1.8633547520932131e-07 0.0000000000000000 0.36458333333333331 0.0000000000000000 0.36457771657231303 -1.1949587268251412e-05 
0.36458333333333331 0.010416666666666666 0.0000000000000000 -5.3448884585514266e-06 -1.1870666718035711e-05 0.54016399541488791 1.8561276599492318e-07 -2.5178575062915867e-08 0.36458333333333331 0.010416666666666666 0.36457798844487477 0.010404795999948631 
0.37500000000000000 0.0000000000000000 0.0000000000000000 -5.6943885963034341e-06 -1.2225784827407765e-05 0.51592088485683807 1.8358264371198843e-07 0.0000000000000000 0.37500000000000000 0.0000000000000000 0.37499430561140362 -1.2225784827407765e-05 
0.37500000000000000 0.010416666666666666 0.0000000000000000 -5.4225479224240121e-06 -1.2149683547315074e-05 0.52099228921682827 1.8271319232775250e-07 -2.5876767666562165e-08 0.37500000000000000 0.010416666666666666 0.37499457745207759 0.010404516983119351 
0.38541666666666669 0.0000000000000000 0.0000000000000000 -5.7691931709241106e-06 -1.2501883344449439e-05 0.49706119571835883 1.8085381660564847e-07 0.0000000000000000 0.38541666666666669 0.0000000000000000 0.38541089747349577 -1.2501883344449439e-05 
0.38541666666666669 0.010416666666666666 0.0000000000000000 -5.4974108654542765e-06 -1.2428560658931453e-05 0.50212038825548144 1.7985702398108396e-07 -2.6725968322829849e-08 0.38541666666666669 0.010416666666666666 0.38541116925580127 0.010404238106007735 
0.39583333333333331 0.0000000000000000 0.0000000000000000 -5.8412128365772653e-06 -1.2777854105718671e-05 0.47849054381811679 1.7813778471996309e-07 0.0000000000000000 0.39583333333333331 0.0000000000000000 0.39582749212049673 -1.2777854105718671e-05 
0.39583333333333331 0.010416666666666666 0.0000000000000000 -5.5695186946742688e-06 -1.2707269500600181e-05 0.48354443920892426 1.7703092555125668e-07 -2.7704963853474365e-08 0.39583333333333331 0.010416666666666666 0.39582776381463863 0.010403959397166066 
0.40625000000000000 0.0000000000000000 0.0000000000000000 -5.9104859343568452e-06 -1.3053665169189091e-05 0.46020753169289991 1.7542496177277980e-07 0.0000000000000000 0.40625000000000000 0.0000000000000000 0.40624408951406571 -1.3053665169189091e-05 
0.40625000000000000 0.010416666666666666 0.0000000000000000 -5.6389126155489816e-06 -1.2985778146673318e-05 0.46526187746093434 1.7422347612001056e-07 -2.8794816700625640e-08 0.40625000000000000 0.010416666666666666 0.40624436108738443 0.010403680888519992 
0.41666666666666669 0.0000000000000000 0.0000000000000000 -5.9770511535427119e-06 -1.3329281812739268e-05 0.44221173791770685 1.7270713434325721e-07 0.0000000000000000 0.41666666666666669 0.0000000000000000 0.41666068961551317 -1.3329281812739268e-05 
0.41666666666666669 0.010416666666666666 0.0000000000000000 -5.7056337783277801e-06 -1.3264051767397498e-05 0.44727124347251807 1.7142487394147742e-07 -2.9978558781560832e-08 0.41666666666666669 0.010416666666666666 0.41666096103288836 0.010403402614899268 
0.42708333333333331 0.0000000000000000 0.0000000000000000 -6.0409476164110405e-06 -1.3604666935386599e-05 0.42450357923451804 1.6997725205486984e-07 0.0000000000000000 0.42708333333333331 0.0000000000000000 0.42707729238571690 -1.3604666935386599e-05 
0.42708333333333331 0.010416666666666666 0.0000000000000000 -5.7697234034295959e-06 -1.3542053047919625e-05 0.42957202725390681 1.6862668957558290e-07 -3.1240931127553152e-08 0.42708333333333331 0.010416666666666666 0.42707756360992993 0.010403124613618746 
0.43750000000000000 0.0000000000000000 0.0000000000000000 -6.1022149505740512e-06 -1.3879781417733419e-05 0.40708419363119336 1.6722925053025390e-07 0.0000000000000000 0.43750000000000000 0.0000000000000000 0.43749389778504949 -1.3879781417733419e-05 
0.43750000000000000 0.010416666666666666 0.0000000000000000 -5.8312228890589006e-06 -1.3819742563794043e-05 0.41216453639453637 1.6582165842876267e-07 -3.2568161195359394e-08 0.43750000000000000 0.010416666666666666 0.43749416877711095 0.010402846924102873 
0.44791666666666669 0.0000000000000000 0.0000000000000000 -6.1608933507913130e-06 -1.4154584446951256e-05 0.38995534111970581 1.6445790127407150e-07 0.0000000000000000 0.44791666666666669 0.0000000000000000 0.44791050577331587 -1.4154584446951256e-05 
0.44791666666666669 0.010416666666666666 0.0000000000000000 -5.8901739037520135e-06 -1.4097079118728563e-05 0.39504978394252332 1.6300350556953034e-07 -3.3947771298198959e-08 0.44791666666666669 0.010416666666666666 0.44791077649276295 0.010402569587547940 
0.45833333333333331 0.0000000000000000 0.0000000000000000 -6.2170236319178726e-06 -1.4429033810868473e-05 0.37311931953580507 1.6165868382026238e-07 0.0000000000000000 0.45833333333333331 0.0000000000000000 0.45832711630970141 -1.4429033810868473e-05 
0.45833333333333331 0.010416666666666666 0.0000000000000000 -5.9466184661443232e-06 -1.4374020049474542e-05 0.37822939308596554 1.6016679714191128e-07 -3.5368412823606149e-08 0.45833333333333331 0.010416666666666666 0.45832738671486711 0.010402292646617191 
0.46875000000000000 0.0000000000000000 0.0000000000000000 -6.2706472744239297e-06 -1.4703086165099960e-05 0.35657889313977714 1.5882767638682117e-07 0.0000000000000000 0.46875000000000000 0.0000000000000000 0.46874372935272551 -1.4703086165099960e-05 
0.46875000000000000 0.010416666666666666 0.0000000000000000 -6.0005990139109944e-06 -1.4650521502081816e-05 0.36170551611521146 1.5730681384846314e-07 -3.6819721892330187e-08 0.46875000000000000 0.010416666666666666 0.46874399940098604 0.010402016145164584 
0.47916666666666669 0.0000000000000000 0.0000000000000000 -6.3218064637271274e-06 -1.4976697276637925e-05 0.34033723216504619 1.5596146206227999e-07 0.0000000000000000 0.47916666666666669 0.0000000000000000 0.47916034486020304 -1.4976697276637925e-05 
0.47916666666666669 0.010416666666666666 0.0000000000000000 -6.0521584635520258e-06 -1.4926538683174196e-05 0.34548076556742641 1.5441944286082981e-07 -3.8292192870542490e-08 0.47916666666666669 0.010416666666666666 0.47916061450820319 0.010401740127983491 
0.48958333333333331 0.0000000000000000 0.0000000000000000 -6.3705441244150688e-06 -1.5249822246894583e-05 0.32439786175595042 1.5305704809681225e-07 0.0000000000000000 0.48958333333333331 0.0000000000000000 0.48957696278920898 -1.5249822246894583e-05 
0.48958333333333331 0.010416666666666666 0.0000000000000000 -6.1013402624565314e-06 -1.5202026089435194e-05 0.32955815579388453 1.5150108523337938e-07 -3.9777066793812498e-08 0.48958333333333331 0.010416666666666666 0.48957723199307085 0.010401464640577231 
0.50000000000000000 0.0000000000000000 0.0000000000000000 -6.4169039502961647e-06 -1.5522415716830288e-05 0.30876461897454083 1.5011179632965589e-07 0.0000000000000000 0.50000000000000000 0.0000000000000000 0.49999358309604974 -1.5522415716830288e-05 
0.50000000000000000 0.010416666666666666 0.0000000000000000 -6.1481884344818822e-06 -1.5476937718107010e-05 0.31394105346389228 1.4854857645792506e-07 -4.1266232253270039e-08 0.50000000000000000 0.010416666666666666 0.49999385181156558 0.010401189728948559 
0.51041666666666663 0.0000000000000000 0.0000000000000000 -6.4609304310973124e-06 -1.5794432056504324e-05 0.29344161674827479 1.4712336320826545e-07 0.0000000000000000 0.51041666666666663 0.0000000000000000 0.51041020573623552 -1.5794432056504324e-05 
0.51041666666666663 0.010416666666666666 0.0000000000000000 -6.1927476201137493e-06 -1.5751227260984613e-05 0.29863313574044453 1.4555911824853523e-07 -4.2752136702682070e-08 0.51041666666666663 0.010416666666666666 0.51041047391904648 0.010400915439405682 
0.52083333333333337 0.0000000000000000 0.0000000000000000 -6.5026688765231112e-06 -1.6065825541140354e-05 0.27843321378623220 1.4408964808052028e-07 0.0000000000000000 0.52083333333333337 0.0000000000000000 0.52082683066445690 -1.6065825541140354e-05 
0.52083333333333337 0.010416666666666666 0.0000000000000000 -6.2350631121275689e-06 -1.6024848284122366e-05 0.28363835504118112 1.4253022001083532e-07 -4.4227706483950160e-08 0.52083333333333337 0.010416666666666666 0.52082709827022111 0.010400641818382544 
0.53125000000000000 0.0000000000000000 0.0000000000000000 -6.5421654383005392e-06 -1.6336550515593938e-05 0.26374398961687578 1.4100874876201930e-07 0.0000000000000000 0.53125000000000000 0.0000000000000000 0.53124345783456173 -1.6336550515593938e-05 
0.53125000000000000 0.010416666666666666 0.0000000000000000 -6.2751808875461892e-06 -1.6297754395249567e-05 0.26896090944293866 1.3945964875220779e-07 -4.5686274124292461e-08 0.53125000000000000 0.010416666666666666 0.53124372481911231 0.010400368912271417 
0.54166666666666663 0.0000000000000000 0.0000000000000000 -6.5794671307524315e-06 -1.6606561548941444e-05 0.24937872400094943 1.3787892354584103e-07 0.0000000000000000 0.54166666666666663 0.0000000000000000 0.54166008719953584 -1.6606561548941444e-05 
0.54166666666666663 0.010416666666666666 0.0000000000000000 -6.3131476365781247e-06 -1.6569899400711107e-05 0.25460521790418245 1.3634538643277326e-07 -4.7121511695543629e-08 0.54166666666666663 0.010416666666666666 0.54166035351903019 0.010400096767265955 
0.55208333333333337 0.0000000000000000 0.0000000000000000 -6.6146218503712033e-06 -1.6875813580771258e-05 0.23534238005342542 1.3469855898422340e-07 0.0000000000000000 0.55208333333333337 0.0000000000000000 0.55207671871148301 -1.6875813580771258e-05 
0.55208333333333337 0.010416666666666666 0.0000000000000000 -6.3490107891234336e-06 -1.6841237453600033e-05 0.24057589957238654 1.3318559396759005e-07 -4.8527369190214791e-08 0.55208333333333337 0.010416666666666666 0.55207698432254426 0.010399825429213068 
0.56250000000000000 0.0000000000000000 0.0000000000000000 -6.6476783947985167e-06 -1.7144262060645334e-05 0.22164009047057179 1.3146614298471623e-07 0.0000000000000000 0.56250000000000000 0.0000000000000000 0.56249335232160524 -1.7144262060645334e-05 
0.56250000000000000 0.010416666666666666 0.0000000000000000 -6.3828185393467919e-06 -1.7111723194628609e-05 0.22687775651688177 1.2997858124934486e-07 -4.9898017018178323e-08 0.56250000000000000 0.010416666666666666 0.56249361718146063 0.010399554943472037 
0.57291666666666663 0.0000000000000000 0.0000000000000000 -6.6786864815559489e-06 -1.7411863082109491e-05 0.20827714630523941 1.2818024280043995e-07 0.0000000000000000 0.57291666666666663 0.0000000000000000 0.57290998798018511 -1.7411863082109491e-05 
0.57291666666666663 0.010416666666666666 0.0000000000000000 -6.4146198687378267e-06 -1.7381311887188512e-05 0.21351575928314206 1.2672278275097265e-07 -5.1227791873478153e-08 0.57291666666666663 0.010416666666666666 0.57291025204679791 0.010399285354779478 
0.58333333333333337 0.0000000000000000 0.0000000000000000 -6.7076967668148140e-06 -1.7678573512559098e-05 0.19525898776812389 1.2483948767941753e-07 0.0000000000000000 0.58333333333333337 0.0000000000000000 0.58332662563656656 -1.7678573512559098e-05 
0.58333333333333337 0.010416666666666666 0.0000000000000000 -6.4444645680048688e-06 -1.7649959547974514e-05 0.20049503470646357 1.2341673834165802e-07 -5.2511145272335746e-08 0.58333333333333337 0.010416666666666666 0.58332688886876538 0.010399016707118692 
0.59375000000000000 0.0000000000000000 0.0000000000000000 -6.7347608644383283e-06 -1.7944351120214490e-05 0.18259119655279812 1.2144255604822504e-07 0.0000000000000000 0.59375000000000000 0.0000000000000000 0.59374326523913556 -1.7944351120214490e-05 
0.59375000000000000 0.010416666666666666 0.0000000000000000 -6.4724032580790907e-06 -1.7917623074491302e-05 0.18782085545060753 1.2005907914639768e-07 -5.3742594201728344e-08 0.59375000000000000 0.010416666666666666 0.59374352759674187 0.010398749043592176 
0.60416666666666663 0.0000000000000000 0.0000000000000000 -6.7599313654756535e-06 -1.8209154699421511e-05 0.17027948919330138 1.1798816712747356e-07 0.0000000000000000 0.60416666666666663 0.0000000000000000 0.60415990673530118 -1.8209154699421511e-05 