<?xml version="1.0"?>
<VTKFile type="UnstructuredGrid" version="0.1" byte_order="LittleEndian" compressor="vtkZLibDataCompressor">
  <UnstructuredGrid>
    <Piece NumberOfPoints="961" NumberOfCells="225">
      <PointData>
        <DataArray type="Float64" Name="u" format="ascii" RangeMin="-0.99999605634" RangeMax="0.99999605634">
          5.3356400541e-05 -0.20790541539 -0.20336748053 9.1543842706e-06 -0.1045358649 -0.2067743217
          -0.10224572355 -7.8140430871e-06 -0.10395478836 -0.40674070475 -0.3978496294 -0.30901711634
          -0.40450922058 -0.3022648083 -0.30732422841 -0.58779312224 -0.57494275068 -0.49999825816
          -0.58456605562 -0.48907440067 -0.4972613311 -0.74315507004 -0.72690792791 -0.66912800696
          -0.73907470855 -0.65450925449 -0.66546559128 -0.86603738825 -0.84710370853 -0.8090138106
          -0.86128227763 -0.79133894059 -0.8045857885 -0.95106968481 -0.93027698673 -0.91354185603
          -0.94584768299 -0.89358332242 -0.90854172192 -0.99453566687 -0.9727926957 -0.97814374339
          -0.98907500673 -0.95677382598 -0.97279002174 -0.99453566687 -0.9727926957 -0.99999605634
          -0.98907500673 -0.97814872238 -0.99452272953 -0.95106968481 -0.93027698673 -0.97814374339
          -0.94584768299 -0.95677382598 -0.97279002174 -0.86603738825 -0.84710370853 -0.91354185603
          -0.86128227763 -0.89358332242 -0.90854172192 -0.74315507004 -0.72690792791 -0.8090138106
          -0.73907470855 -0.79133894059 -0.8045857885 -0.58779312224 -0.57494275068 -0.66912800696
          -0.58456605562 -0.65450925449 -0.66546559128 -0.40674070475 -0.3978496294 -0.49999825816
          -0.40450922058 -0.48907440067 -0.4972613311 -0.20790541539 -0.20336748053 -0.30901711634
          -0.2067743217 -0.3022648083 -0.30732422841 5.3356400594e-05 9.1543842936e-06 -0.1045358649
          -7.8140431011e-06 -0.10224572355 -0.10395478836 -0.18993702329 1.5705268161e-06 -0.19773630946
          -0.095491881435 -1.3408003647e-06 -0.099412341012 -0.37157336808 -0.38683018271 -0.28230155006
          -0.29389277317 -0.53696998673 -0.55901788037 -0.45677344591 -0.47552854469 -0.67889840822
          -0.70677384158 -0.61128217773 -0.63638141361 -0.79115570606 -0.82364039914 -0.73907494984
          -0.76942135706 -0.86883570222 -0.9045099198 -0.83456660097 -0.86883389444 -0.90854340889
          -0.94584801679 -0.89358368708 -0.93027422138 -0.90854340889 -0.94584801679 -0.91354687821
          -0.95105710087 -0.86883570222 -0.9045099198 -0.89358368708 -0.93027422138 -0.79115570606
          -0.82364039914 -0.83456660097 -0.86883389444 -0.67889840822 -0.70677384158 -0.73907494984
          -0.76942135707 -0.53696998673 -0.55901788037 -0.61128217773 -0.63638141361 -0.37157336808
          -0.38683018271 -0.45677344591 -0.47552854469 -0.18993702329 -0.19773630946 -0.28230155006
          -0.29389277316 1.5705268396e-06 -1.3408003807e-06 -0.095491881434 -0.099412341012 -0.16820448243
          2.6935725353e-07 -0.18005713079 -0.084565475955 -2.3015532215e-07 -0.090524323183 -0.32905770424
          -0.3522448304 -0.25000040064 -0.26761671579 -0.47552949332 -0.50903776806 -0.40450913556
          -0.43301295039 -0.6012183562 -0.64358331732 -0.54133888493 -0.57948443724 -0.70063109102
          -0.75000118818 -0.6545095282 -0.70062967282 -0.76942288499 -0.82364040835 -0.73907496455
          -0.7911540296 -0.80458720677 -0.86128259044 -0.7913392785 -0.84710115888 -0.80458720677
          -0.86128259044 -0.80901826872 -0.86602590268 -0.76942288499 -0.82364040835 -0.7913392785
          -0.84710115888 -0.70063109101 -0.75000118818 -0.73907496455 -0.7911540296 -0.6012183562
          -0.64358331732 -0.6545095282 -0.70062967282 -0.47552949332 -0.50903776805 -0.54133888493
          -0.57948443724 -0.32905770424 -0.3522448304 -0.40450913556 -0.43301295039 -0.16820448243
          -0.18005713079 -0.25000040063 -0.26761671579 2.6935726083e-07 -2.3015532484e-07 -0.084565475954
          -0.090524323182 -0.13912042686 4.6130855459e-08 -0.15450874691 -0.069943310398 -3.9581730397e-08
          -0.077679824351 -0.27216063756 -0.30226470797 -0.20677305385 -0.22964450785 -0.39330611693
          -0.43681025557 -0.33456582734 -0.3715726204 -0.49726223076 -0.55226509977 -0.44773646957
          -0.49726122576 -0.57948559881 -0.64358330919 -0.54133887975 -0.60121712931 -0.6363826655
          -0.70677383978 -0.61128218327 -0.67889695934 -0.665466756 -0.73907496209 -0.65450952214
          -0.72690573454 -0.665466756 -0.73907496209 -0.66913165421 -0.74314524106 -0.6363826655
          -0.70677383978 -0.65450952214 -0.72690573454 -0.57948559881 -0.64358330919 -0.61128218327
          -0.67889695934 -0.49726223075 -0.55226509977 -0.54133887974 -0.60121712931 -0.39330611692
          -0.43681025557 -0.44773646957 -0.49726122576 -0.27216063756 -0.30226470796 -0.33456582734
          -0.3715726204 -0.13912042686 -0.1545087469 -0.20677305385 -0.22964450785 4.6130853201e-08
          -3.9581732991e-08 -0.069943310397 -0.07767982435 -0.10395611137 7.8531276677e-09 -0.12220761771
          -0.052264314275 -6.8632649296e-09 -0.061440321941 -0.2033688442 -0.23907417395 -0.15450873811
          -0.18163573151 -0.29389338172 -0.34549204239 -0.25000038949 -0.29389278735 -0.37157336805
          -0.43681025087 -0.33456582436 -0.39330531802 -0.43301381516 -0.50903775537 -0.40450912731
          -0.47552851899 -0.47552948072 -0.55901786733 -0.45677344034 -0.53696884183 -0.49726222613
          -0.58456621603 -0.4890745622 -0.57494104963 -0.49726222613 -0.58456621603 -0.50000077885
          -0.58778557469 -0.47552948072 -0.55901786733 -0.4890745622 -0.57494104963 -0.43301381516
          -0.50903775537 -0.45677344035 -0.53696884183 -0.37157336805 -0.43681025087 -0.4045091273
          -0.47552851898 -0.29389338172 -0.34549204239 -0.33456582436 -0.39330531802 -0.2033688442
          -0.23907417394 -0.25000038949 -0.29389278735 -0.10395611137 -0.12220761771 -0.15450873811
          -0.18163573151 7.853099087e-09 -6.8632325179e-09 -0.052264314274 -0.06144032194 -0.064248410428
          1.3056325194e-09 -0.0845654349 -0.03230112193 -1.2246148702e-09 -0.042515579166 -0.12568885739
          -0.16543495409 -0.095491651119 -0.12568860303 -0.18163609801 -0.23907417208 -0.15450873707
          -0.2033684317 -0.22964496953 -0.30226470158 -0.20677304983 -0.27216008402 -0.26761725392
          -0.3522448132 -0.25000038811 -0.3290570347 -0.29389338014 -0.38683013622 -0.28230150979
          -0.37157261398 -0.3073249554 -0.40450912608 -0.30226470087 -0.39784868702 -0.3073249554
          -0.40450912608 -0.30901747409 -0.40673686336 -0.29389338015 -0.38683013622 -0.30226470087
          -0.39784868702 -0.26761725392 -0.3522448132 -0.28230150979 -0.37157261398 -0.22964496953
          -0.30226470158 -0.25000038811 -0.3290570347 -0.18163609801 -0.23907417208 -0.20677304983
          -0.27216008402 -0.12568885739 -0.16543495409 -0.15450873707 -0.2033684317 -0.064248410427
          -0.084565434898 -0.095491651116 -0.12568860302 1.305598472e-09 -1.2245666851e-09 -0.032301121929
          -0.042515579165 -0.021732745216 1.7702692744e-10 -0.043227338273 -0.01092621661 -2.2610359496e-10
          -0.021732701222 -0.042515665225 -0.084565434347 -0.032301121623 -0.064248280352 -0.061440446628
          -0.12220761517 -0.052264312643 -0.10395590132 -0.077679985687 -0.15450873681 -0.069943302413
          -0.13912015055 -0.090524536621 -0.18005708523 -0.084565434244 -0.16820418164 -0.099412730921
          -0.19773607502 -0.095491650809 -0.18993688286 -0.10395611185 -0.20677304948 -0.10224442402
          -0.20336843088 -0.10395611185 -0.20677304948 -0.10452862527 -0.20791180261 -0.099412730922
          -0.19773607502 -0.10224442402 -0.20336843088 -0.090524536622 -0.18005708523 -0.095491650811
          -0.18993688286 -0.077679985687 -0.15450873681 -0.084565434245 -0.16820418164 -0.061440446627
          -0.12220761517 -0.069943302413 -0.13912015055 -0.042515665224 -0.084565434344 -0.052264312642
          -0.10395590131 -0.021732745215 -0.043227338272 -0.032301121621 -0.06424828035 1.7700128713e-10
          -2.2608010448e-10 -0.010926216609 -0.021732701221 0.021732745216 -1.7704230846e-10 -1.6793708856e-13
          0.01092621661 1.3698963918e-14 -1.0656847479e-13 0.042515665225 1.1330306326e-13 0.032301121623
          -7.8461221043e-14 0.06144044663 8.7903528177e-13 0.052264312644 4.6052017741e-13 0.077679985691
          1.9432609699e-12 0.069943302416 1.387006891e-12 0.090524536626 2.6937811772e-12 0.084565434249
          2.4547108774e-12 0.099412730926 2.8031391989e-12 0.095491650815 2.799863295e-12 0.10395611185
          2.29464388e-12 0.10224442402 2.6489394036e-12 0.10395611185 1.4356857243e-12 0.10452862527
          1.8124173895e-12 0.099412730924 8.53857166e-13 0.10224442402 1.0013185091e-12 0.090524536624
          8.178407046e-13 0.095491650812 6.8450722385e-13 0.077679985689 1.143275398e-12 0.084565434247
          9.0624249056e-13 0.061440446631 1.5276832525e-12 0.069943302416 1.2853673302e-12 0.042515665227
          1.5490126152e-12 0.052264312645 1.6370365921e-12 0.021732745217 9.4639886597e-13 0.032301121624
          1.3438191031e-12 -1.7704822275e-10 2.2750757939e-15 0.01092621661 5.222620609e-13 0.064248410428
          -1.3056571775e-09 0.043227338273 0.03230112193 2.2612285562e-10 0.021732701221 0.12568885739
          0.084565434347 0.095491651118 0.064248280352 0.18163609801 0.12220761517 0.15450873707
          0.10395590132 0.22964496953 0.15450873681 0.20677304983 0.13912015056 0.26761725392
          0.18005708523 0.25000038811 0.16820418165 0.29389338015 0.19773607502 0.2823015098
          0.18993688287 0.30732495541 0.20677304949 0.30226470087 0.20336843089 0.30732495541
          0.20677304949 0.3090174741 0.20791180261 0.29389338015 0.19773607502 0.30226470087
          0.20336843089 0.26761725392 0.18005708523 0.2823015098 0.18993688286 0.22964496953
          0.15450873681 0.25000038811 0.16820418165 0.18163609801 0.12220761518 0.20677304983
          0.13912015056 0.12568885739 0.084565434348 0.15450873708 0.10395590132 0.064248410429
          0.043227338274 0.09549165112 0.064248280353 -1.3056183708e-09 2.260803415e-10 0.032301121931
          0.021732701222 0.10395611137 -7.8531501603e-09 0.0845654349 0.052264314275 1.2246122163e-09
          0.042515579166 0.2033688442 0.16543495409 0.15450873811 0.12568860303 0.29389338172
          0.23907417208 0.25000038949 0.2033684317 0.37157336805 0.30226470158 0.33456582436
          0.27216008402 0.43301381517 0.3522448132 0.40450912731 0.32905703471 0.47552948073
          0.38683013623 0.45677344035 0.37157261398 0.49726222613 0.40450912608 0.48907456221
          0.39784868703 0.49726222613 0.40450912608 0.50000077886 0.40673686336 0.47552948072
          0.38683013622 0.48907456221 0.39784868702 0.43301381517 0.3522448132 0.45677344035
          0.37157261398 0.37157336805 0.30226470158 0.40450912731 0.3290570347 0.29389338172
          0.23907417209 0.33456582436 0.27216008402 0.2033688442 0.16543495409 0.2500003895
          0.2033684317 0.10395611137 0.084565434901 0.15450873812 0.12568860303 -7.8530791518e-09
          1.2245430801e-09 0.052264314276 0.042515579166 0.13912042686 -4.6130858398e-08 0.12220761771
          0.069943310398 6.8632425377e-09 0.061440321941 0.27216063756 0.23907417395 0.20677305385
          0.18163573151 0.39330611693 0.34549204239 0.33456582734 0.29389278735 0.49726223076
          0.43681025087 0.44773646957 0.39330531802 0.57948559882 0.50903775537 0.54133887975
          0.47552851899 0.63638266551 0.55901786733 0.61128218328 0.53696884184 0.665466756
          0.58456621603 0.65450952214 0.57494104964 0.665466756 0.58456621603 0.66913165421
          0.5877855747 0.6363826655 0.55901786733 0.65450952214 0.57494104964 0.57948559882
          0.50903775537 0.61128218328 0.53696884184 0.49726223076 0.43681025087 0.54133887975
          0.47552851899 0.39330611693 0.34549204239 0.44773646957 0.39330531802 0.27216063756
          0.23907417395 0.33456582734 0.29389278736 0.13912042686 0.12220761771 0.20677305385
          0.18163573152 -4.6130816184e-08 6.8631939788e-09 0.069943310399 0.061440321941 0.16820448243
          -2.693572241e-07 0.15450874691 0.084565475955 3.9581692193e-08 0.077679824351 0.32905770424
          0.30226470797 0.25000040064 0.22964450785 0.47552949332 0.43681025557 0.40450913557
          0.3715726204 0.60121835621 0.55226509977 0.54133888493 0.49726122576 0.70063109102
          0.6435833092 0.65450952821 0.60121712932 0.769422885 0.70677383978 0.73907496456
          0.67889695935 0.80458720677 0.7390749621 0.79133927851 0.72690573454 0.80458720677
          0.73907496209 0.80901826873 0.74314524106 0.76942288499 0.70677383978 0.7913392785
          0.72690573454 0.70063109102 0.6435833092 0.73907496455 0.67889695935 0.60121835621
          0.55226509977 0.6545095282 0.60121712932 0.47552949332 0.43681025557 0.54133888493
          0.49726122576 0.32905770424 0.30226470797 0.40450913557 0.3715726204 0.16820448243
          0.15450874691 0.25000040064 0.22964450785 -2.6935722439e-07 3.9581702604e-08 0.084565475956
          0.077679824351 0.18993702329 -1.5705267695e-06 0.18005713079 0.095491881434 2.3015525925e-07
          0.090524323182 0.37157336808 0.3522448304 0.28230155006 0.26761671579 0.53696998673
          0.50903776806 0.45677344591 0.43301295039 0.67889840822 0.64358331732 0.61128217774
          0.57948443724 0.79115570606 0.75000118818 0.73907494984 0.70062967283 0.86883570222
          0.82364040835 0.83456660097 0.7911540296 0.90854340889 0.86128259044 0.89358368709
          0.84710115889 0.90854340889 0.86128259044 0.91354687821 0.86602590269 0.86883570222
          0.82364040835 0.89358368709 0.84710115889 0.79115570606 0.75000118818 0.83456660097
          0.7911540296 0.67889840822 0.64358331732 0.73907494984 0.70062967282 0.53696998673
          0.50903776806 0.61128217774 0.57948443724 0.37157336808 0.3522448304 0.45677344591
          0.43301295039 0.18993702329 0.18005713079 0.28230155006 0.26761671579 -1.5705267857e-06
          2.3015527308e-07 0.095491881435 0.090524323183 0.20336748053 -9.1543841856e-06 0.19773630946
          0.10224572355 1.3408002912e-06 0.099412341012 0.3978496294 0.38683018271 0.3022648083
          0.29389277317 0.57494275068 0.55901788037 0.48907440067 0.47552854469 0.72690792791
          0.70677384158 0.65450925449 0.63638141361 0.84710370853 0.82364039914 0.79133894059
          0.76942135707 0.93027698674 0.9045099198 0.89358332242 0.86883389444 0.9727926957
          0.94584801679 0.95677382598 0.93027422138 0.9727926957 0.94584801679 0.97814872238
          0.95105710087 0.93027698674 0.9045099198 0.95677382598 0.93027422138 0.84710370854
          0.82364039914 0.89358332242 0.86883389444 0.72690792791 0.70677384158 0.79133894059
          0.76942135707 0.57494275068 0.55901788037 0.65450925449 0.63638141362 0.3978496294
          0.38683018271 0.48907440067 0.47552854469 0.20336748053 0.19773630946 0.3022648083
          0.29389277317 -9.1543842177e-06 1.3408003453e-06 0.10224572355 0.099412341012 0.20790541539
          -5.3356400331e-05 0.2067743217 0.1045358649 7.8140430357e-06 0.10395478836 0.40674070475
          0.40450922058 0.30901711634 0.30732422841 0.58779312224 0.58456605562 0.49999825816
          0.4972613311 0.74315507004 0.73907470855 0.66912800696 0.66546559128 0.86603738825
          0.86128227763 0.8090138106 0.8045857885 0.95106968481 0.94584768299 0.91354185603
          0.90854172192 0.99453566687 0.98907500673 0.97814374339 0.97279002174 0.99453566687
          0.98907500673 0.99999605634 0.99452272953 0.95106968481 0.94584768299 0.97814374339
          0.97279002174 0.86603738825 0.86128227763 0.91354185603 0.90854172192 0.74315507004
          0.73907470855 0.8090138106 0.8045857885 0.58779312224 0.58456605562 0.66912800696
          0.66546559128 0.40674070475 0.40450922058 0.49999825816 0.4972613311 0.20790541539
          0.2067743217 0.30901711634 0.30732422841 -5.3356400508e-05 7.8140430555e-06 0.1045358649
          0.10395478836
        </DataArray>
      </PointData>
      <CellData>
      </CellData>
      <Points>
        <DataArray type="Float64" Name="Points" NumberOfComponents="3" format="ascii" RangeMin="0" RangeMax="1.4142135624">
          -1 -1 0 -0.86666666667 -1 0
          -0.86666666667 -0.86666666667 0 -1 -0.86666666667 0
          -0.93333333333 -1 0 -0.86666666667 -0.93333333333 0
          -0.93333333333 -0.86666666667 0 -1 -0.93333333333 0
          -0.93333333333 -0.93333333333 0 -0.73333333333 -1 0
          -0.73333333333 -0.86666666667 0 -0.8 -1 0
          -0.73333333333 -0.93333333333 0 -0.8 -0.86666666667 0
          -0.8 -0.93333333333 0 -0.6 -1 0
          -0.6 -0.86666666667 0 -0.66666666667 -1 0
          -0.6 -0.93333333333 0 -0.66666666667 -0.86666666667 0
          -0.66666666667 -0.93333333333 0 -0.46666666667 -1 0
          -0.46666666667 -0.86666666667 0 -0.53333333333 -1 0
          -0.46666666667 -0.93333333333 0 -0.53333333333 -0.86666666667 0
          -0.53333333333 -0.93333333333 0 -0.33333333333 -1 0
          -0.33333333333 -0.86666666667 0 -0.4 -1 0
          -0.33333333333 -0.93333333333 0 -0.4 -0.86666666667 0
          -0.4 -0.93333333333 0 -0.2 -1 0
          -0.2 -0.86666666667 0 -0.26666666667 -1 0
          -0.2 -0.93333333333 0 -0.26666666667 -0.86666666667 0
          -0.26666666667 -0.93333333333 0 -0.066666666667 -1 0
          -0.066666666667 -0.86666666667 0 -0.13333333333 -1 0
          -0.066666666667 -0.93333333333 0 -0.13333333333 -0.86666666667 0
          -0.13333333333 -0.93333333333 0 0.066666666667 -1 0
          0.066666666667 -0.86666666667 0 0 -1 0
          0.066666666667 -0.93333333333 0 0 -0.86666666667 0
          0 -0.93333333333 0 0.2 -1 0
          0.2 -0.86666666667 0 0.13333333333 -1 0
          0.2 -0.93333333333 0 0.13333333333 -0.86666666667 0
          0.13333333333 -0.93333333333 0 0.33333333333 -1 0
          0.33333333333 -0.86666666667 0 0.26666666667 -1 0
          0.33333333333 -0.93333333333 0 0.26666666667 -0.86666666667 0
          0.26666666667 -0.93333333333 0 0.46666666667 -1 0
          0.46666666667 -0.86666666667 0 0.4 -1 0
          0.46666666667 -0.93333333333 0 0.4 -0.86666666667 0
          0.4 -0.93333333333 0 0.6 -1 0
          0.6 -0.86666666667 0 0.53333333333 -1 0
          0.6 -0.93333333333 0 0.53333333333 -0.86666666667 0
          0.53333333333 -0.93333333333 0 0.73333333333 -1 0
          0.73333333333 -0.86666666667 0 0.66666666667 -1 0
          0.73333333333 -0.93333333333 0 0.66666666667 -0.86666666667 0
          0.66666666667 -0.93333333333 0 0.86666666667 -1 0
          0.86666666667 -0.86666666667 0 0.8 -1 0
          0.86666666667 -0.93333333333 0 0.8 -0.86666666667 0
          0.8 -0.93333333333 0 1 -1 0
          1 -0.86666666667 0 0.93333333333 -1 0
          1 -0.93333333333 0 0.93333333333 -0.86666666667 0
          0.93333333333 -0.93333333333 0 -0.86666666667 -0.73333333333 0
          -1 -0.73333333333 0 -0.86666666667 -0.8 0
          -0.93333333333 -0.73333333333 0 -1 -0.8 0
          -0.93333333333 -0.8 0 -0.73333333333 -0.73333333333 0
          -0.73333333333 -0.8 0 -0.8 -0.73333333333 0
          -0.8 -0.8 0 -0.6 -0.73333333333 0
          -0.6 -0.8 0 -0.66666666667 -0.73333333333 0
          -0.66666666667 -0.8 0 -0.46666666667 -0.73333333333 0
          -0.46666666667 -0.8 0 -0.53333333333 -0.73333333333 0
          -0.53333333333 -0.8 0 -0.33333333333 -0.73333333333 0
          -0.33333333333 -0.8 0 -0.4 -0.73333333333 0
          -0.4 -0.8 0 -0.2 -0.73333333333 0
          -0.2 -0.8 0 -0.26666666667 -0.73333333333 0
          -0.26666666667 -0.8 0 -0.066666666667 -0.73333333333 0
          -0.066666666667 -0.8 0 -0.13333333333 -0.73333333333 0
          -0.13333333333 -0.8 0 0.066666666667 -0.73333333333 0
          0.066666666667 -0.8 0 0 -0.73333333333 0
          0 -0.8 0 0.2 -0.73333333333 0
          0.2 -0.8 0 0.13333333333 -0.73333333333 0
          0.13333333333 -0.8 0 0.33333333333 -0.73333333333 0
          0.33333333333 -0.8 0 0.26666666667 -0.73333333333 0
          0.26666666667 -0.8 0 0.46666666667 -0.73333333333 0
          0.46666666667 -0.8 0 0.4 -0.73333333333 0
          0.4 -0.8 0 0.6 -0.73333333333 0
          0.6 -0.8 0 0.53333333333 -0.73333333333 0
          0.53333333333 -0.8 0 0.73333333333 -0.73333333333 0
          0.73333333333 -0.8 0 0.66666666667 -0.73333333333 0
          0.66666666667 -0.8 0 0.86666666667 -0.73333333333 0
          0.86666666667 -0.8 0 0.8 -0.73333333333 0
          0.8 -0.8 0 1 -0.73333333333 0
          1 -0.8 0 0.93333333333 -0.73333333333 0
          0.93333333333 -0.8 0 -0.86666666667 -0.6 0
          -1 -0.6 0 -0.86666666667 -0.66666666667 0
          -0.93333333333 -0.6 0 -1 -0.66666666667 0
          -0.93333333333 -0.66666666667 0 -0.73333333333 -0.6 0
          -0.73333333333 -0.66666666667 0 -0.8 -0.6 0
          -0.8 -0.66666666667 0 -0.6 -0.6 0
          -0.6 -0.66666666667 0 -0.66666666667 -0.6 0
          -0.66666666667 -0.66666666667 0 -0.46666666667 -0.6 0
          -0.46666666667 -0.66666666667 0 -0.53333333333 -0.6 0
          -0.53333333333 -0.66666666667 0 -0.33333333333 -0.6 0
          -0.33333333333 -0.66666666667 0 -0.4 -0.6 0
          -0.4 -0.66666666667 0 -0.2 -0.6 0
          -0.2 -0.66666666667 0 -0.26666666667 -0.6 0
          -0.26666666667 -0.66666666667 0 -0.066666666667 -0.6 0
          -0.066666666667 -0.66666666667 0 -0.13333333333 -0.6 0
          -0.13333333333 -0.66666666667 0 0.066666666667 -0.6 0
          0.066666666667 -0.66666666667 0 0 -0.6 0
          0 -0.66666666667 0 0.2 -0.6 0
          0.2 -0.66666666667 0 0.13333333333 -0.6 0
          0.13333333333 -0.66666666667 0 0.33333333333 -0.6 0
          0.33333333333 -0.66666666667 0 0.26666666667 -0.6 0
          0.26666666667 -0.66666666667 0 0.46666666667 -0.6 0
          0.46666666667 -0.66666666667 0 0.4 -0.6 0
          0.4 -0.66666666667 0 0.6 -0.6 0
          0.6 -0.66666666667 0 0.53333333333 -0.6 0
          0.53333333333 -0.66666666667 0 0.73333333333 -0.6 0
          0.73333333333 -0.66666666667 0 0.66666666667 -0.6 0
          0.66666666667 -0.66666666667 0 0.86666666667 -0.6 0
          0.86666666667 -0.66666666667 0 0.8 -0.6 0
          0.8 -0.66666666667 0 1 -0.6 0
          1 -0.66666666667 0 0.93333333333 -0.6 0
          0.93333333333 -0.66666666667 0 -0.86666666667 -0.46666666667 0
          -1 -0.46666666667 0 -0.86666666667 -0.53333333333 0
          -0.93333333333 -0.46666666667 0 -1 -0.53333333333 0
          -0.93333333333 -0.53333333333 0 -0.73333333333 -0.46666666667 0
          -0.73333333333 -0.53333333333 0 -0.8 -0.46666666667 0
          -0.8 -0.53333333333 0 -0.6 -0.46666666667 0
          -0.6 -0.53333333333 0 -0.66666666667 -0.46666666667 0
          -0.66666666667 -0.53333333333 0 -0.46666666667 -0.46666666667 0
          -0.46666666667 -0.53333333333 0 -0.53333333333 -0.46666666667 0
          -0.53333333333 -0.53333333333 0 -0.33333333333 -0.46666666667 0
          -0.33333333333 -0.53333333333 0 -0.4 -0.46666666667 0
          -0.4 -0.53333333333 0 -0.2 -0.46666666667 0
          -0.2 -0.53333333333 0 -0.26666666667 -0.46666666667 0
          -0.26666666667 -0.53333333333 0 -0.066666666667 -0.46666666667 0
          -0.066666666667 -0.53333333333 0 -0.13333333333 -0.46666666667 0
          -0.13333333333 -0.53333333333 0 0.066666666667 -0.46666666667 0
          0.066666666667 -0.53333333333 0 0 -0.46666666667 0
          0 -0.53333333333 0 0.2 -0.46666666667 0
          0.2 -0.53333333333 0 0.13333333333 -0.46666666667 0
          0.13333333333 -0.53333333333 0 0.33333333333 -0.46666666667 0
          0.33333333333 -0.53333333333 0 0.26666666667 -0.46666666667 0
          0.26666666667 -0.53333333333 0 0.46666666667 -0.46666666667 0
          0.46666666667 -0.53333333333 0 0.4 -0.46666666667 0
          0.4 -0.53333333333 0 0.6 -0.46666666667 0
          0.6 -0.53333333333 0 0.53333333333 -0.46666666667 0
          0.53333333333 -0.53333333333 0 0.73333333333 -0.46666666667 0
          0.73333333333 -0.53333333333 0 0.66666666667 -0.46666666667 0
          0.66666666667 -0.53333333333 0 0.86666666667 -0.46666666667 0
          0.86666666667 -0.53333333333 0 0.8 -0.46666666667 0
          0.8 -0.53333333333 0 1 -0.46666666667 0
          1 -0.53333333333 0 0.93333333333 -0.46666666667 0
          0.93333333333 -0.53333333333 0 -0.86666666667 -0.33333333333 0
          -1 -0.33333333333 0 -0.86666666667 -0.4 0
          -0.93333333333 -0.33333333333 0 -1 -0.4 0
          -0.93333333333 -0.4 0 -0.73333333333 -0.33333333333 0
          -0.73333333333 -0.4 0 -0.8 -0.33333333333 0
          -0.8 -0.4 0 -0.6 -0.33333333333 0
          -0.6 -0.4 0 -0.66666666667 -0.33333333333 0
          -0.66666666667 -0.4 0 -0.46666666667 -0.33333333333 0
          -0.46666666667 -0.4 0 -0.53333333333 -0.33333333333 0
          -0.53333333333 -0.4 0 -0.33333333333 -0.33333333333 0
          -0.33333333333 -0.4 0 -0.4 -0.33333333333 0
          -0.4 -0.4 0 -0.2 -0.33333333333 0
          -0.2 -0.4 0 -0.26666666667 -0.33333333333 0
          -0.26666666667 -0.4 0 -0.066666666667 -0.33333333333 0
          -0.066666666667 -0.4 0 -0.13333333333 -0.33333333333 0
          -0.13333333333 -0.4 0 0.066666666667 -0.33333333333 0
          0.066666666667 -0.4 0 0 -0.33333333333 0
          0 -0.4 0 0.2 -0.33333333333 0
          0.2 -0.4 0 0.13333333333 -0.33333333333 0
          0.13333333333 -0.4 0 0.33333333333 -0.33333333333 0
          0.33333333333 -0.4 0 0.26666666667 -0.33333333333 0
          0.26666666667 -0.4 0 0.46666666667 -0.33333333333 0
          0.46666666667 -0.4 0 0.4 -0.33333333333 0
          0.4 -0.4 0 0.6 -0.33333333333 0
          0.6 -0.4 0 0.53333333333 -0.33333333333 0
          0.53333333333 -0.4 0 0.73333333333 -0.33333333333 0
          0.73333333333 -0.4 0 0.66666666667 -0.33333333333 0
          0.66666666667 -0.4 0 0.86666666667 -0.33333333333 0
          0.86666666667 -0.4 0 0.8 -0.33333333333 0
          0.8 -0.4 0 1 -0.33333333333 0
          1 -0.4 0 0.93333333333 -0.33333333333 0
          0.93333333333 -0.4 0 -0.86666666667 -0.2 0
          -1 -0.2 0 -0.86666666667 -0.26666666667 0
          -0.93333333333 -0.2 0 -1 -0.26666666667 0
          -0.93333333333 -0.26666666667 0 -0.73333333333 -0.2 0
          -0.73333333333 -0.26666666667 0 -0.8 -0.2 0
          -0.8 -0.26666666667 0 -0.6 -0.2 0
          -0.6 -0.26666666667 0 -0.66666666667 -0.2 0
          -0.66666666667 -0.26666666667 0 -0.46666666667 -0.2 0
          -0.46666666667 -0.26666666667 0 -0.53333333333 -0.2 0
          -0.53333333333 -0.26666666667 0 -0.33333333333 -0.2 0
          -0.33333333333 -0.26666666667 0 -0.4 -0.2 0
          -0.4 -0.26666666667 0 -0.2 -0.2 0
          -0.2 -0.26666666667 0 -0.26666666667 -0.2 0
          -0.26666666667 -0.26666666667 0 -0.066666666667 -0.2 0
          -0.066666666667 -0.26666666667 0 -0.13333333333 -0.2 0
          -0.13333333333 -0.26666666667 0 0.066666666667 -0.2 0
          0.066666666667 -0.26666666667 0 0 -0.2 0
          0 -0.26666666667 0 0.2 -0.2 0
          0.2 -0.26666666667 0 0.13333333333 -0.2 0
          0.13333333333 -0.26666666667 0 0.33333333333 -0.2 0
          0.33333333333 -0.26666666667 0 0.26666666667 -0.2 0
          0.26666666667 -0.26666666667 0 0.46666666667 -0.2 0
          0.46666666667 -0.26666666667 0 0.4 -0.2 0
          0.4 -0.26666666667 0 0.6 -0.2 0
          0.6 -0.26666666667 0 0.53333333333 -0.2 0
          0.53333333333 -0.26666666667 0 0.73333333333 -0.2 0
          0.73333333333 -0.26666666667 0 0.66666666667 -0.2 0
          0.66666666667 -0.26666666667 0 0.86666666667 -0.2 0
          0.86666666667 -0.26666666667 0 0.8 -0.2 0
          0.8 -0.26666666667 0 1 -0.2 0
          1 -0.26666666667 0 0.93333333333 -0.2 0
          0.93333333333 -0.26666666667 0 -0.86666666667 -0.066666666667 0
          -1 -0.066666666667 0 -0.86666666667 -0.13333333333 0
          -0.93333333333 -0.066666666667 0 -1 -0.13333333333 0
          -0.93333333333 -0.13333333333 0 -0.73333333333 -0.066666666667 0
          -0.73333333333 -0.13333333333 0 -0.8 -0.066666666667 0
          -0.8 -0.13333333333 0 -0.6 -0.066666666667 0
          -0.6 -0.13333333333 0 -0.66666666667 -0.066666666667 0
          -0.66666666667 -0.13333333333 0 -0.46666666667 -0.066666666667 0
          -0.46666666667 -0.13333333333 0 -0.53333333333 -0.066666666667 0
          -0.53333333333 -0.13333333333 0 -0.33333333333 -0.066666666667 0
          -0.33333333333 -0.13333333333 0 -0.4 -0.066666666667 0
          -0.4 -0.13333333333 0 -0.2 -0.066666666667 0
          -0.2 -0.13333333333 0 -0.26666666667 -0.066666666667 0
          -0.26666666667 -0.13333333333 0 -0.066666666667 -0.066666666667 0
          -0.066666666667 -0.13333333333 0 -0.13333333333 -0.066666666667 0
          -0.13333333333 -0.13333333333 0 0.066666666667 -0.066666666667 0
          0.066666666667 -0.13333333333 0 0 -0.066666666667 0
          0 -0.13333333333 0 0.2 -0.066666666667 0
          0.2 -0.13333333333 0 0.13333333333 -0.066666666667 0
          0.13333333333 -0.13333333333 0 0.33333333333 -0.066666666667 0
          0.33333333333 -0.13333333333 0 0.26666666667 -0.066666666667 0
          0.26666666667 -0.13333333333 0 0.46666666667 -0.066666666667 0
          0.46666666667 -0.13333333333 0 0.4 -0.066666666667 0
          0.4 -0.13333333333 0 0.6 -0.066666666667 0
          0.6 -0.13333333333 0 0.53333333333 -0.066666666667 0
          0.53333333333 -0.13333333333 0 0.73333333333 -0.066666666667 0
          0.73333333333 -0.13333333333 0 0.66666666667 -0.066666666667 0
          0.66666666667 -0.13333333333 0 0.86666666667 -0.066666666667 0
          0.86666666667 -0.13333333333 0 0.8 -0.066666666667 0
          0.8 -0.13333333333 0 1 -0.066666666667 0
          1 -0.13333333333 0 0.93333333333 -0.066666666667 0